 vasp.5.4.4.18Apr17-6-g9f103f2a35 (build Nov 08 2017 13:07:49) complex          
  
 executed on             LinuxIFC date 2017.11.08  14:14:42
 running on   32 total cores
 distrk:  each k-point on   32 cores,    1 groups
 distr:  one band on NCORES_PER_BAND=   1 cores,   32 groups


--------------------------------------------------------------------------------------------------------


 INCAR:
 POTCAR:    PAW_PBE Li_sv 10Sep2004               
 POTCAR:    PAW_PBE O 08Apr2002                   
 POTCAR:    PAW_PBE V_sv 02Aug2007                

 ----------------------------------------------------------------------------- 
|                                                                             |
|           W    W    AA    RRRRR   N    N  II  N    N   GGGG   !!!           |
|           W    W   A  A   R    R  NN   N  II  NN   N  G    G  !!!           |
|           W    W  A    A  R    R  N N  N  II  N N  N  G       !!!           |
|           W WW W  AAAAAA  RRRRR   N  N N  II  N  N N  G  GGG   !            |
|           WW  WW  A    A  R   R   N   NN  II  N   NN  G    G                |
|           W    W  A    A  R    R  N    N  II  N    N   GGGG   !!!           |
|                                                                             |
|      For optimal performance we recommend to set                            |
|        NCORE= 4 - approx SQRT( number of cores)                             |
|      NCORE specifies how many cores store one orbital (NPAR=cpu/NCORE).     |
|      This setting can  greatly improve the performance of VASP for DFT.     |
|      The default,   NCORE=1            might be grossly inefficient         |
|      on modern multi-core architectures or massively parallel machines.     |
|      Do your own testing !!!!                                               |
|      Unfortunately you need to use the default for GW and RPA calculations. |
|      (for HF NCORE is supported but not extensively tested yet)             |
|                                                                             |
 ----------------------------------------------------------------------------- 

 POTCAR:    PAW_PBE Li_sv 10Sep2004               
  local pseudopotential read in
  atomic valenz-charges read in
  non local Contribution for L=           0  read in
    real space projection operators read in
  non local Contribution for L=           0  read in
    real space projection operators read in
  non local Contribution for L=           1  read in
    real space projection operators read in
    PAW grid and wavefunctions read in
 
   number of l-projection  operators is LMAX  =           3
   number of lm-projection operators is LMMAX =           5
 
 POTCAR:    PAW_PBE O 08Apr2002                   
  local pseudopotential read in
  partial core-charges read in
  partial kinetic energy density read in
  kinetic energy density of atom read in
  atomic valenz-charges read in
  non local Contribution for L=           0  read in
    real space projection operators read in
  non local Contribution for L=           0  read in
    real space projection operators read in
  non local Contribution for L=           1  read in
    real space projection operators read in
  non local Contribution for L=           1  read in
    real space projection operators read in
    PAW grid and wavefunctions read in
 
   number of l-projection  operators is LMAX  =           4
   number of lm-projection operators is LMMAX =           8
 
 POTCAR:    PAW_PBE V_sv 02Aug2007                
  local pseudopotential read in
  partial core-charges read in
  partial kinetic energy density read in
  atomic valenz-charges read in
  non local Contribution for L=           0  read in
    real space projection operators read in
  non local Contribution for L=           0  read in
    real space projection operators read in
  non local Contribution for L=           1  read in
    real space projection operators read in
  non local Contribution for L=           1  read in
    real space projection operators read in
  non local Contribution for L=           2  read in
    real space projection operators read in
  non local Contribution for L=           2  read in
    real space projection operators read in
    PAW grid and wavefunctions read in
 
   number of l-projection  operators is LMAX  =           6
   number of lm-projection operators is LMMAX =          18
 
 Optimization of the real space projectors (new method)

 maximal supplied QI-value         = 22.11
 optimisation between [QCUT,QGAM] = [ 13.04, 26.09] = [ 47.65,190.61] Ry 
 Optimized for a Real-space Cutoff    1.02 Angstroem

   l    n(q)    QCUT    max X(q) W(low)/X(q) W(high)/X(q)  e(spline) 
   0      8    13.045    10.506    0.52E-04    0.60E-04    0.12E-07
   0      8    13.045     8.367    0.12E-03    0.13E-03    0.25E-07
   1      7    13.045     8.983    0.15E-03    0.54E-04    0.16E-06
 Optimization of the real space projectors (new method)

 maximal supplied QI-value         = 24.76
 optimisation between [QCUT,QGAM] = [ 12.87, 25.99] = [ 46.40,189.20] Ry 
 Optimized for a Real-space Cutoff    1.15 Angstroem

   l    n(q)    QCUT    max X(q) W(low)/X(q) W(high)/X(q)  e(spline) 
   0      9    12.873    20.381    0.19E-03    0.10E-03    0.26E-06
   0      9    12.873    15.268    0.20E-03    0.11E-03    0.28E-06
   1      8    12.873     5.964    0.13E-03    0.17E-03    0.24E-06
   1      8    12.873     5.382    0.11E-03    0.15E-03    0.21E-06
 Optimization of the real space projectors (new method)

 maximal supplied QI-value         = 16.25
 optimisation between [QCUT,QGAM] = [ 13.00, 26.00] = [ 47.33,189.34] Ry 
 Optimized for a Real-space Cutoff    1.33 Angstroem

   l    n(q)    QCUT    max X(q) W(low)/X(q) W(high)/X(q)  e(spline) 
   0     10    13.001     2.784    0.61E-05    0.34E-05    0.68E-07
   0     10    13.001    21.205    0.19E-04    0.73E-05    0.30E-07
   1     10    13.001     3.152    0.53E-04    0.63E-04    0.66E-07
   1     10    13.001     5.587    0.20E-03    0.20E-03    0.28E-06
   2      9    13.001    55.619    0.22E-03    0.17E-03    0.20E-06
   2      9    13.001    52.293    0.22E-03    0.16E-03    0.20E-06
  PAW_PBE Li_sv 10Sep2004               :
 energy of atom  1       EATOM= -202.7858
 kinetic energy error for atom=    0.0072 (will be added to EATOM!!)
  PAW_PBE O 08Apr2002                   :
 energy of atom  2       EATOM= -432.3788
 kinetic energy error for atom=    0.0129 (will be added to EATOM!!)
  PAW_PBE V_sv 02Aug2007                :
 energy of atom  3       EATOM=-1952.1149
 kinetic energy error for atom=    0.0040 (will be added to EATOM!!)
 
 
 POSCAR: Li O V                                  
  positions in direct lattice
  No initial velocities read in
 exchange correlation table for  LEXCH =        8
   RHO(1)=    0.500       N(1)  =     2000
   RHO(2)=  100.500       N(2)  =     4000
 


--------------------------------------------------------------------------------------------------------


 ion  position               nearest neighbor table
   1  0.258  0.251  0.011- 137 1.99 113 2.06  97 2.07  85 2.10  61 2.18  77 2.19
   2  0.757  0.250  0.011- 138 1.98 114 2.07  98 2.07  86 2.10  62 2.18  78 2.18
   3  0.257  0.750  0.011- 139 1.98 115 2.07  99 2.07  87 2.10  63 2.18  79 2.18
   4  0.757  0.750  0.011- 140 1.98 116 2.07 100 2.07  88 2.10  64 2.18  80 2.18
   5  0.257  0.250  0.511- 141 1.98 117 2.07 101 2.07  81 2.10  57 2.18  73 2.18
   6  0.757  0.250  0.511- 142 1.98 118 2.07 102 2.07  82 2.10  58 2.18  74 2.18
   7  0.257  0.750  0.511- 143 1.98 119 2.07 103 2.07  83 2.10  59 2.18  75 2.18
   8  0.757  0.750  0.511- 144 1.98 120 2.07 104 2.07  84 2.10  60 2.18  76 2.18
   9  0.007  0.000  0.011- 130 1.98 107 2.07 121 2.07  93 2.10  54 2.18  72 2.18
  10  0.507  0.000  0.011- 129 1.98 108 2.07 122 2.07  94 2.10  53 2.18  71 2.18
  11  0.007  0.500  0.011- 132 1.98 123 2.07 105 2.07  95 2.10  56 2.18  70 2.18
  12  0.507  0.500  0.011- 131 1.98 124 2.07 106 2.07  96 2.10  55 2.18  69 2.18
  13  0.007  0.000  0.511- 134 1.98 111 2.07 125 2.07  89 2.10  50 2.18  68 2.18
  14  0.507  0.000  0.511- 133 1.98 112 2.07 126 2.07  90 2.10  49 2.18  67 2.18
  15  0.007  0.500  0.511- 136 1.98 127 2.07 109 2.07  91 2.10  52 2.18  66 2.18
  16  0.507  0.500  0.511- 135 1.98 128 2.07 110 2.07  92 2.10  51 2.18  65 2.18
  17  0.497  0.335  0.001- 138 2.00  69 2.05  62 2.08  85 2.09 106 2.15 113 2.16
  18  0.997  0.335  0.001- 137 2.00  70 2.05  61 2.08  86 2.09 105 2.15 114 2.16
  19  0.497  0.835  0.001- 140 2.00  71 2.05  64 2.08  87 2.09 108 2.15 115 2.16
  20  0.997  0.835  0.001- 139 2.00  72 2.05  63 2.08  88 2.09 107 2.15 116 2.16
  21  0.497  0.335  0.501- 142 2.00  65 2.05  58 2.08  81 2.09 110 2.15 117 2.16
  22  0.997  0.335  0.501- 141 2.00  66 2.05  57 2.08  82 2.09 109 2.15 118 2.16
  23  0.497  0.835  0.501- 144 2.00  67 2.05  60 2.08  83 2.09 112 2.15 119 2.16
  24  0.997  0.835  0.501- 143 2.00  68 2.05  59 2.08  84 2.09 111 2.15 120 2.16
  25  0.247  0.085  0.001- 129 2.00  77 2.05  53 2.08  93 2.09  97 2.15 121 2.16
  26  0.747  0.085  0.001- 130 2.00  78 2.05  54 2.08  94 2.09  98 2.15 122 2.16
  27  0.247  0.585  0.001- 131 2.00  79 2.05  55 2.08  95 2.09  99 2.15 123 2.16
  28  0.747  0.585  0.001- 132 2.00  80 2.05  56 2.08  96 2.09 100 2.15 124 2.16
  29  0.247  0.085  0.501- 133 2.00  73 2.05  49 2.08  89 2.09 101 2.15 125 2.16
  30  0.747  0.085  0.501- 134 2.00  74 2.05  50 2.08  90 2.09 102 2.15 126 2.16
  31  0.247  0.585  0.501- 135 2.00  75 2.05  51 2.08  91 2.09 103 2.15 127 2.16
  32  0.747  0.585  0.501- 136 2.00  76 2.05  52 2.08  92 2.09 104 2.15 128 2.16
  33  0.497  0.165  0.001- 138 2.00  53 2.05  78 2.08  85 2.09 122 2.15  97 2.16
  34  0.997  0.165  0.001- 137 2.00  54 2.05  77 2.08  86 2.09 121 2.15  98 2.16
  35  0.497  0.665  0.001- 140 2.00  55 2.05  80 2.08  87 2.09 124 2.15  99 2.16
  36  0.997  0.665  0.001- 139 2.00  56 2.05  79 2.08  88 2.09 123 2.15 100 2.16
  37  0.497  0.165  0.501- 142 2.00  49 2.05  74 2.08  81 2.09 126 2.15 101 2.16
  38  0.997  0.165  0.501- 141 2.00  50 2.05  73 2.08  82 2.09 125 2.15 102 2.16
  39  0.497  0.665  0.501- 144 2.00  51 2.05  76 2.08  83 2.09 128 2.15 103 2.16
  40  0.997  0.665  0.501- 143 2.00  52 2.05  75 2.08  84 2.09 127 2.15 104 2.16
  41  0.247  0.415  0.001- 131 2.00  61 2.05  69 2.08  95 2.09 113 2.15 105 2.16
  42  0.747  0.415  0.001- 132 2.00  62 2.05  70 2.08  96 2.09 114 2.15 106 2.16
  43  0.247  0.915  0.001- 129 2.00  63 2.05  71 2.08  93 2.09 115 2.15 107 2.16
  44  0.747  0.915  0.001- 130 2.00  64 2.05  72 2.08  94 2.09 116 2.15 108 2.16
  45  0.247  0.415  0.501- 135 2.00  57 2.05  65 2.08  91 2.09 117 2.15 109 2.16
  46  0.747  0.415  0.501- 136 2.00  58 2.05  66 2.08  92 2.09 118 2.15 110 2.16
  47  0.247  0.915  0.501- 133 2.00  59 2.05  67 2.08  89 2.09 119 2.15 111 2.16
  48  0.747  0.915  0.501- 134 2.00  60 2.05  68 2.08  90 2.09 120 2.15 112 2.16
  49  0.370  0.084  0.371- 161 1.94 177 1.94  37 2.05  29 2.08  14 2.18 153 2.18
  50  0.870  0.084  0.371- 162 1.94 178 1.94  38 2.05  30 2.08  13 2.18 154 2.18
  51  0.370  0.584  0.371- 163 1.94 179 1.94  39 2.05  31 2.08  16 2.18 155 2.18
  52  0.870  0.584  0.371- 164 1.94 180 1.94  40 2.05  32 2.08  15 2.18 156 2.18
  53  0.370  0.084  0.871- 165 1.94 181 1.94  33 2.05  25 2.08  10 2.18 157 2.18
  54  0.870  0.084  0.871- 166 1.94 182 1.94  34 2.05  26 2.08   9 2.18 158 2.18
  55  0.370  0.584  0.871- 167 1.94 183 1.94  35 2.05  27 2.08  12 2.18 159 2.18
  56  0.870  0.584  0.871- 168 1.94 184 1.94  36 2.05  28 2.08  11 2.18 160 2.18
  57  0.120  0.334  0.371- 169 1.94 185 1.94  45 2.05  22 2.08   5 2.18 146 2.18
  58  0.620  0.334  0.371- 170 1.94 186 1.94  46 2.05  21 2.08   6 2.18 145 2.18
  59  0.120  0.834  0.371- 171 1.94 187 1.94  47 2.05  24 2.08   7 2.18 148 2.18
  60  0.620  0.834  0.371- 172 1.94 188 1.94  48 2.05  23 2.08   8 2.18 147 2.18
  61  0.120  0.334  0.871- 173 1.94 189 1.94  41 2.05  18 2.08   1 2.18 150 2.18
  62  0.620  0.334  0.871- 174 1.94 190 1.94  42 2.05  17 2.08   2 2.18 149 2.18
  63  0.120  0.834  0.871- 175 1.94 191 1.94  43 2.05  20 2.08   3 2.18 152 2.18
  64  0.620  0.834  0.871- 176 1.94 192 1.94  44 2.05  19 2.08   4 2.18 151 2.18
  65  0.370  0.416  0.371- 145 1.94 179 1.94  21 2.05  45 2.08  16 2.18 169 2.18
  66  0.870  0.416  0.371- 146 1.94 180 1.94  22 2.05  46 2.08  15 2.18 170 2.18
  67  0.370  0.916  0.371- 147 1.94 177 1.94  23 2.05  47 2.08  14 2.18 171 2.18
  68  0.870  0.916  0.371- 148 1.94 178 1.94  24 2.05  48 2.08  13 2.18 172 2.18
  69  0.370  0.416  0.871- 149 1.94 183 1.94  17 2.05  41 2.08  12 2.18 173 2.18
  70  0.870  0.416  0.871- 150 1.94 184 1.94  18 2.05  42 2.08  11 2.18 174 2.18
  71  0.370  0.916  0.871- 151 1.94 181 1.94  19 2.05  43 2.08  10 2.18 175 2.18
  72  0.870  0.916  0.871- 152 1.94 182 1.94  20 2.05  44 2.08   9 2.18 176 2.18
  73  0.120  0.166  0.371- 153 1.94 185 1.94  29 2.05  38 2.08   5 2.18 162 2.18
  74  0.620  0.166  0.371- 154 1.94 186 1.94  30 2.05  37 2.08   6 2.18 161 2.18
  75  0.120  0.666  0.371- 155 1.94 187 1.94  31 2.05  40 2.08   7 2.18 164 2.18
  76  0.620  0.666  0.371- 156 1.94 188 1.94  32 2.05  39 2.08   8 2.18 163 2.18
  77  0.120  0.166  0.871- 157 1.94 189 1.94  25 2.05  34 2.08 166 2.18   1 2.19
  78  0.620  0.166  0.871- 158 1.94 190 1.94  26 2.05  33 2.08   2 2.18 165 2.18
  79  0.120  0.666  0.871- 159 1.94 191 1.94  27 2.05  36 2.08   3 2.18 168 2.18
  80  0.620  0.666  0.871- 160 1.94 192 1.94  28 2.05  35 2.08   4 2.18 167 2.18
  81  0.371  0.250  0.371- 153 1.94 169 1.94  21 2.09  37 2.09   5 2.10 186 2.19
  82  0.871  0.250  0.371- 154 1.94 170 1.94  22 2.09  38 2.09   6 2.10 185 2.19
  83  0.371  0.750  0.371- 155 1.94 171 1.94  23 2.09  39 2.09   7 2.10 188 2.19
  84  0.871  0.750  0.371- 156 1.94 172 1.94  24 2.09  40 2.09   8 2.10 187 2.19
  85  0.371  0.250  0.871- 157 1.94 173 1.94  17 2.09  33 2.09   1 2.10 190 2.19
  86  0.871  0.250  0.871- 158 1.94 174 1.94  18 2.09  34 2.09   2 2.10 189 2.19
  87  0.371  0.750  0.871- 159 1.94 175 1.94  19 2.09  35 2.09   3 2.10 192 2.19
  88  0.871  0.750  0.871- 160 1.94 176 1.94  20 2.09  36 2.09   4 2.10 191 2.19
  89  0.121  0.000  0.371- 148 1.94 162 1.94  29 2.09  47 2.09  13 2.10 177 2.19
  90  0.621  0.000  0.371- 147 1.94 161 1.94  30 2.09  48 2.09  14 2.10 178 2.19
  91  0.121  0.500  0.371- 146 1.94 164 1.94  31 2.09  45 2.09  15 2.10 179 2.19
  92  0.621  0.500  0.371- 145 1.94 163 1.94  32 2.09  46 2.09  16 2.10 180 2.19
  93  0.121  0.000  0.871- 152 1.94 166 1.94  25 2.09  43 2.09   9 2.10 181 2.19
  94  0.621  0.000  0.871- 151 1.94 165 1.94  26 2.09  44 2.09  10 2.10 182 2.19
  95  0.121  0.500  0.871- 150 1.94 168 1.94  27 2.09  41 2.09  11 2.10 183 2.19
  96  0.621  0.500  0.871- 149 1.94 167 1.94  28 2.09  42 2.09  12 2.10 184 2.19
  97  0.378  0.167  0.143- 161 2.05 153 2.06 186 2.06   1 2.07  25 2.15  33 2.16
  98  0.878  0.167  0.143- 162 2.05 154 2.06 185 2.06   2 2.07  26 2.15  34 2.16
  99  0.378  0.667  0.143- 163 2.05 155 2.06 188 2.06   3 2.07  27 2.15  35 2.16
 100  0.878  0.667  0.143- 164 2.05 156 2.06 187 2.06   4 2.07  28 2.15  36 2.16
 101  0.378  0.167  0.643- 165 2.05 157 2.06 190 2.06   5 2.07  29 2.15  37 2.16
 102  0.878  0.167  0.643- 166 2.05 158 2.06 189 2.06   6 2.07  30 2.15  38 2.16
 103  0.378  0.667  0.643- 167 2.05 159 2.06 192 2.06   7 2.07  31 2.15  39 2.16
 104  0.878  0.667  0.643- 168 2.05 160 2.06 191 2.06   8 2.07  32 2.15  40 2.16
 105  0.128  0.417  0.143- 169 2.05 146 2.06 179 2.06  11 2.07  18 2.15  41 2.16
 106  0.628  0.417  0.143- 170 2.05 145 2.06 180 2.06  12 2.07  17 2.15  42 2.16
 107  0.128  0.917  0.143- 171 2.05 148 2.06 177 2.06   9 2.07  20 2.15  43 2.16
 108  0.628  0.917  0.143- 172 2.05 147 2.06 178 2.06  10 2.07  19 2.15  44 2.16
 109  0.128  0.417  0.643- 173 2.05 150 2.06 183 2.06  15 2.07  22 2.15  45 2.16
 110  0.628  0.417  0.643- 174 2.05 149 2.06 184 2.06  16 2.07  21 2.15  46 2.16
 111  0.128  0.917  0.643- 175 2.05 152 2.06 181 2.06  13 2.07  24 2.15  47 2.16
 112  0.628  0.917  0.643- 176 2.05 151 2.06 182 2.06  14 2.07  23 2.15  48 2.16
 113  0.378  0.333  0.143- 145 2.05 169 2.06 186 2.06   1 2.06  41 2.15  17 2.16
 114  0.878  0.333  0.143- 146 2.05 170 2.06 185 2.06   2 2.07  42 2.15  18 2.16
 115  0.378  0.833  0.143- 147 2.05 171 2.06 188 2.06   3 2.07  43 2.15  19 2.16
 116  0.878  0.833  0.143- 148 2.05 172 2.06 187 2.06   4 2.07  44 2.15  20 2.16
 117  0.378  0.333  0.643- 149 2.05 173 2.06 190 2.06   5 2.07  45 2.15  21 2.16
 118  0.878  0.333  0.643- 150 2.05 174 2.06 189 2.06   6 2.07  46 2.15  22 2.16
 119  0.378  0.833  0.643- 151 2.05 175 2.06 192 2.06   7 2.07  47 2.15  23 2.16
 120  0.878  0.833  0.643- 152 2.05 176 2.06 191 2.06   8 2.07  48 2.15  24 2.16
 121  0.128  0.083  0.143- 153 2.05 162 2.06 177 2.06   9 2.07  34 2.15  25 2.16
 122  0.628  0.083  0.143- 154 2.05 161 2.06 178 2.06  10 2.07  33 2.15  26 2.16
 123  0.128  0.583  0.143- 155 2.05 164 2.06 179 2.06  11 2.07  36 2.15  27 2.16
 124  0.628  0.583  0.143- 156 2.05 163 2.06 180 2.06  12 2.07  35 2.15  28 2.16
 125  0.128  0.083  0.643- 157 2.05 166 2.06 181 2.06  13 2.07  38 2.15  29 2.16
 126  0.628  0.083  0.643- 158 2.05 165 2.06 182 2.06  14 2.07  37 2.15  30 2.16
 127  0.128  0.583  0.643- 159 2.05 168 2.06 183 2.06  15 2.07  40 2.15  31 2.16
 128  0.628  0.583  0.643- 160 2.05 167 2.06 184 2.06  16 2.07  39 2.15  32 2.16
 129  0.368  0.000  0.115- 147 1.97 161 1.97 177 1.97  10 1.98  43 2.00  25 2.00
 130  0.868  0.000  0.115- 148 1.97 162 1.97 178 1.97   9 1.98  44 2.00  26 2.00
 131  0.368  0.500  0.115- 145 1.97 163 1.97 179 1.97  12 1.98  41 2.00  27 2.00
 132  0.868  0.500  0.115- 146 1.97 164 1.97 180 1.97  11 1.98  42 2.00  28 2.00
 133  0.368  0.000  0.615- 151 1.97 165 1.97 181 1.97  14 1.98  47 2.00  29 2.00
 134  0.868  0.000  0.615- 152 1.97 166 1.97 182 1.97  13 1.98  48 2.00  30 2.00
 135  0.368  0.500  0.615- 149 1.97 167 1.97 183 1.97  16 1.98  45 2.00  31 2.00
 136  0.868  0.500  0.615- 150 1.97 168 1.97 184 1.97  15 1.98  46 2.00  32 2.00
 137  0.118  0.250  0.115- 153 1.97 169 1.97 185 1.97   1 1.99  34 2.00  18 2.00
 138  0.618  0.250  0.115- 154 1.97 170 1.97 186 1.97   2 1.98  33 2.00  17 2.00
 139  0.118  0.750  0.115- 155 1.97 171 1.97 187 1.97   3 1.98  36 2.00  20 2.00
 140  0.618  0.750  0.115- 156 1.97 172 1.97 188 1.97   4 1.98  35 2.00  19 2.00
 141  0.118  0.250  0.615- 157 1.97 173 1.97 189 1.97   5 1.98  38 2.00  22 2.00
 142  0.618  0.250  0.615- 158 1.97 174 1.97 190 1.97   6 1.98  37 2.00  21 2.00
 143  0.118  0.750  0.615- 159 1.97 175 1.97 191 1.97   7 1.98  40 2.00  24 2.00
 144  0.618  0.750  0.615- 160 1.97 176 1.97 192 1.97   8 1.98  39 2.00  23 2.00
 145  0.486  0.428  0.252-  65 1.94  92 1.94 131 1.97 113 2.05 106 2.06  58 2.18 179 2.44 163 2.44

 146  0.986  0.428  0.252-  66 1.94  91 1.94 132 1.97 114 2.05 105 2.06  57 2.18 180 2.44 164 2.44

 147  0.486  0.928  0.252-  67 1.94  90 1.94 129 1.97 115 2.05 108 2.06  60 2.18 177 2.44 161 2.44

 148  0.986  0.928  0.252-  68 1.94  89 1.94 130 1.97 116 2.05 107 2.06  59 2.18 178 2.44 162 2.44

 149  0.486  0.428  0.752-  69 1.94  96 1.94 135 1.97 117 2.05 110 2.06  62 2.18 183 2.44 167 2.44

 150  0.986  0.428  0.752-  70 1.94  95 1.94 136 1.97 118 2.05 109 2.06  61 2.18 184 2.44 168 2.44

 151  0.486  0.928  0.752-  71 1.94  94 1.94 133 1.97 119 2.05 112 2.06  64 2.18 181 2.44 165 2.44

 152  0.986  0.928  0.752-  72 1.94  93 1.94 134 1.97 120 2.05 111 2.06  63 2.18 182 2.44 166 2.44

 153  0.236  0.178  0.252-  73 1.94  81 1.94 137 1.97 121 2.05  97 2.06  49 2.18 185 2.44 169 2.44

 154  0.736  0.178  0.252-  74 1.94  82 1.94 138 1.97 122 2.05  98 2.06  50 2.18 186 2.44 170 2.44

 155  0.236  0.678  0.252-  75 1.94  83 1.94 139 1.97 123 2.05  99 2.06  51 2.18 187 2.44 171 2.44

 156  0.736  0.678  0.252-  76 1.94  84 1.94 140 1.97 124 2.05 100 2.06  52 2.18 188 2.44 172 2.44

 157  0.236  0.178  0.752-  77 1.94  85 1.94 141 1.97 125 2.05 101 2.06  53 2.18 189 2.44 173 2.44

 158  0.736  0.178  0.752-  78 1.94  86 1.94 142 1.97 126 2.05 102 2.06  54 2.18 190 2.44 174 2.44

 159  0.236  0.678  0.752-  79 1.94  87 1.94 143 1.97 127 2.05 103 2.06  55 2.18 191 2.44 175 2.44

 160  0.736  0.678  0.752-  80 1.94  88 1.94 144 1.97 128 2.05 104 2.06  56 2.18 192 2.44 176 2.44

 161  0.486  0.072  0.252-  49 1.94  90 1.94 129 1.97  97 2.05 122 2.06  74 2.18 177 2.44 147 2.44

 162  0.986  0.072  0.252-  50 1.94  89 1.94 130 1.97  98 2.05 121 2.06  73 2.18 178 2.44 148 2.44

 163  0.486  0.572  0.252-  51 1.94  92 1.94 131 1.97  99 2.05 124 2.06  76 2.18 179 2.44 145 2.44

 164  0.986  0.572  0.252-  52 1.94  91 1.94 132 1.97 100 2.05 123 2.06  75 2.18 180 2.44 146 2.44

 165  0.486  0.072  0.752-  53 1.94  94 1.94 133 1.97 101 2.05 126 2.06  78 2.18 181 2.44 151 2.44

 166  0.986  0.072  0.752-  54 1.94  93 1.94 134 1.97 102 2.05 125 2.06  77 2.18 182 2.44 152 2.44

 167  0.486  0.572  0.752-  55 1.94  96 1.94 135 1.97 103 2.05 128 2.06  80 2.18 183 2.44 149 2.44

 168  0.986  0.572  0.752-  56 1.94  95 1.94 136 1.97 104 2.05 127 2.06  79 2.18 184 2.44 150 2.44

 169  0.236  0.322  0.252-  57 1.94  81 1.94 137 1.97 105 2.05 113 2.06  65 2.18 185 2.44 153 2.44

 170  0.736  0.322  0.252-  58 1.94  82 1.94 138 1.97 106 2.05 114 2.06  66 2.18 186 2.44 154 2.44

 171  0.236  0.822  0.252-  59 1.94  83 1.94 139 1.97 107 2.05 115 2.06  67 2.18 187 2.44 155 2.44

 172  0.736  0.822  0.252-  60 1.94  84 1.94 140 1.97 108 2.05 116 2.06  68 2.18 188 2.44 156 2.44

 173  0.236  0.322  0.752-  61 1.94  85 1.94 141 1.97 109 2.05 117 2.06  69 2.18 189 2.44 157 2.44

 174  0.736  0.322  0.752-  62 1.94  86 1.94 142 1.97 110 2.05 118 2.06  70 2.18 190 2.44 158 2.44

 175  0.236  0.822  0.752-  63 1.94  87 1.94 143 1.97 111 2.05 119 2.06  71 2.18 191 2.44 159 2.44

 176  0.736  0.822  0.752-  64 1.94  88 1.94 144 1.97 112 2.05 120 2.06  72 2.18 192 2.44 160 2.44

 177  0.271  0.000  0.253-  49 1.94  67 1.94 129 1.97 107 2.06 121 2.06  89 2.19 147 2.44 161 2.44

 178  0.771  0.000  0.253-  50 1.94  68 1.94 130 1.97 108 2.06 122 2.06  90 2.19 148 2.44 162 2.44

 179  0.271  0.500  0.253-  51 1.94  65 1.94 131 1.97 123 2.06 105 2.06  91 2.19 145 2.44 163 2.44

 180  0.771  0.500  0.253-  52 1.94  66 1.94 132 1.97 124 2.06 106 2.06  92 2.19 146 2.44 164 2.44

 181  0.271  0.000  0.753-  53 1.94  71 1.94 133 1.97 111 2.06 125 2.06  93 2.19 151 2.44 165 2.44

 182  0.771  0.000  0.753-  54 1.94  72 1.94 134 1.97 112 2.06 126 2.06  94 2.19 152 2.44 166 2.44

 183  0.271  0.500  0.753-  55 1.94  69 1.94 135 1.97 127 2.06 109 2.06  95 2.19 149 2.44 167 2.44

 184  0.771  0.500  0.753-  56 1.94  70 1.94 136 1.97 128 2.06 110 2.06  96 2.19 150 2.44 168 2.44

 185  0.021  0.250  0.253-  57 1.94  73 1.94 137 1.97 114 2.06  98 2.06  82 2.19 153 2.44 169 2.44

 186  0.521  0.250  0.253-  58 1.94  74 1.94 138 1.97 113 2.06  97 2.06  81 2.19 154 2.44 170 2.44

 187  0.021  0.750  0.253-  59 1.94  75 1.94 139 1.97 116 2.06 100 2.06  84 2.19 155 2.44 171 2.44

 188  0.521  0.750  0.253-  60 1.94  76 1.94 140 1.97 115 2.06  99 2.06  83 2.19 156 2.44 172 2.44

 189  0.021  0.250  0.753-  61 1.94  77 1.94 141 1.97 118 2.06 102 2.06  86 2.19 157 2.44 173 2.44

 190  0.521  0.250  0.753-  62 1.94  78 1.94 142 1.97 117 2.06 101 2.06  85 2.19 158 2.44 174 2.44

 191  0.021  0.750  0.753-  63 1.94  79 1.94 143 1.97 120 2.06 104 2.06  88 2.19 159 2.44 175 2.44

 192  0.521  0.750  0.753-  64 1.94  80 1.94 144 1.97 119 2.06 103 2.06  87 2.19 160 2.44 176 2.44

 
  LATTYP: Found a simple monoclinic cell.
 ALAT       =    11.9341103114
 B/A-ratio  =     1.4140480455
 C/A-ratio  =     1.6986113722
 COS(beta)  =    -0.9150661427
  
  Lattice vectors:
  
 A1 = (  -6.5077649600,   0.0000000000, -10.0035985600)
 A2 = (   0.0000000000, -16.8754053600,   0.0000000000)
 A3 = (   3.2622614000,   0.0000000000,  20.0071971200)


Analysis of symmetry for initial positions (statically):
=====================================================================
 Subroutine PRICEL returns:
 Original cell was already a primitive cell.
 

 Routine SETGRP: Setting up the symmetry group for a 
 simple monoclinic supercell.


 Subroutine GETGRP returns: Found  1 space group operations
 (whereof  1 operations were pure point group operations)
 out of a pool of  4 trial point group operations.


The static configuration has the point symmetry C_1 .


Analysis of symmetry for dynamics (positions and initial velocities):
=====================================================================
 Subroutine PRICEL returns:
 Original cell was already a primitive cell.
 

 Routine SETGRP: Setting up the symmetry group for a 
 simple monoclinic supercell.


 Subroutine GETGRP returns: Found  1 space group operations
 (whereof  1 operations were pure point group operations)
 out of a pool of  4 trial point group operations.


The dynamic configuration has the point symmetry C_1 .


 Subroutine INISYM returns: Found  1 space group operations
 (whereof  1 operations are pure point group operations),
 and found     1 'primitive' translations

 
 
 KPOINTS: Automatic mesh                          

Automatic generation of k-mesh.
Space group operators:
 irot       det(A)        alpha          n_x          n_y          n_z        tau_x        tau_y        tau_z
    1     1.000000     0.000000     1.000000     0.000000     0.000000     0.000000     0.000000     0.000000
 
 Subroutine IBZKPT returns following result:
 ===========================================
 
 Found     14 irreducible k-points:
 
 Following reciprocal coordinates:
            Coordinates               Weight
  0.000000  0.000000  0.000000      1.000000
  0.333333  0.000000 -0.000000      2.000000
  0.000000  0.333333  0.000000      2.000000
  0.333333  0.333333 -0.000000      2.000000
 -0.333333  0.333333  0.000000      2.000000
  0.000000  0.000000  0.333333      2.000000
  0.333333  0.000000  0.333333      2.000000
 -0.333333  0.000000  0.333333      2.000000
  0.000000  0.333333  0.333333      2.000000
  0.333333  0.333333  0.333333      2.000000
 -0.333333  0.333333  0.333333      2.000000
  0.000000 -0.333333  0.333333      2.000000
  0.333333 -0.333333  0.333333      2.000000
 -0.333333 -0.333333  0.333333      2.000000
 
 Following cartesian coordinates:
            Coordinates               Weight
  0.000000  0.000000  0.000000      1.000000
  0.034177  0.000000  0.011088      2.000000
  0.000000  0.019753  0.000000      2.000000
  0.034177  0.019753  0.011088      2.000000
 -0.034177  0.019753 -0.011088      2.000000
  0.000000  0.000000  0.033321      2.000000
  0.034177  0.000000  0.044409      2.000000
 -0.034177  0.000000  0.022233      2.000000
  0.000000  0.019753  0.033321      2.000000
  0.034177  0.019753  0.044409      2.000000
 -0.034177  0.019753  0.022233      2.000000
  0.000000 -0.019753  0.033321      2.000000
  0.034177 -0.019753  0.044409      2.000000
 -0.034177 -0.019753  0.022233      2.000000
 


--------------------------------------------------------------------------------------------------------




 Dimension of arrays:
   k-points           NKPTS =     14   k-points in BZ     NKDIM =     14   number of bands    NBANDS=    832
   number of dos      NEDOS =    301   number of ions     NIONS =    192
   non local maximal  LDIM  =      6   non local SUM 2l+1 LMDIM =     18
   total plane-waves  NPLWV = ******
   max r-space proj   IRMAX =   6412   max aug-charges    IRDMAX= 175493
   dimension x,y,z NGX =    84 NGY =  140 NGZ =   90
   dimension x,y,z NGXF=   168 NGYF=  280 NGZF=  180
   support grid    NGXF=   336 NGYF=  560 NGZF=  360
   ions per type =              48  96  48
   NGX,Y,Z   is equivalent  to a cutoff of  14.32, 13.79, 14.23 a.u.
   NGXF,Y,Z  is equivalent  to a cutoff of  28.64, 27.58, 28.45 a.u.

 SYSTEM =  No title                                
 POSCAR =  Li O V                                  

 Startparameter for this run:
   NWRITE =      1    write-flag & timer
   PREC   = accura    normal or accurate (medium, high low for compatibility)
   ISTART =      0    job   : 0-new  1-cont  2-samecut
   ICHARG =      2    charge: 1-file 2-atom 10-const
   ISPIN  =      1    spin polarized calculation?
   LNONCOLLINEAR =      F non collinear calculations
   LSORBIT =      F    spin-orbit coupling
   INIWAV =      1    electr: 0-lowe 1-rand  2-diag
   LASPH  =      F    aspherical Exc in radial PAW
   METAGGA=      F    non-selfconsistent MetaGGA calc.

 Electronic Relaxation 1
   ENCUT  =  650.0 eV  47.77 Ry    6.91 a.u.  20.28 35.08 21.86*2*pi/ulx,y,z
   ENINI  =  650.0     initial cutoff
   ENAUG  =  628.9 eV  augmentation charge cutoff
   NELM   =    100;   NELMIN=  2; NELMDL=  0     # of ELM steps 
   EDIFF  = 0.1E-05   stopping-criterion for ELM
   LREAL  =      T    real-space projection
   NLSPLINE    = F    spline interpolate recip. space projectors
   LCOMPAT=      F    compatible to vasp.4.4
   GGA_COMPAT  = T    GGA compatible to vasp.4.4-vasp.4.6
   LMAXPAW     = -100 max onsite density
   LMAXMIX     =    2 max onsite mixed and CHGCAR
   VOSKOWN=      1    Vosko Wilk Nusair interpolation
   ROPT   =   -0.00025  -0.00025  -0.00025
 Ionic relaxation
   EDIFFG = -.2E-01   stopping-criterion for IOM
   NSW    =      0    number of steps for IOM
   NBLOCK =      1;   KBLOCK =      1    inner block; outer block 
   IBRION =     -1    ionic relax: 0-MD 1-quasi-New 2-CG
   NFREE  =      0    steps in history (QN), initial steepest desc. (CG)
   ISIF   =      2    stress and relaxation
   IWAVPR =     10    prediction:  0-non 1-charg 2-wave 3-comb
   ISYM   =      2    0-nonsym 1-usesym 2-fastsym
   LCORR  =      T    Harris-Foulkes like correction to forces

   POTIM  = 0.5000    time-step for ionic-motion
   TEIN   =    0.0    initial temperature
   TEBEG  =    0.0;   TEEND  =   0.0 temperature during run
   SMASS  =  -3.00    Nose mass-parameter (am)
   estimated Nose-frequenzy (Omega)   =  0.10E-29 period in steps =****** mass=  -0.217E-26a.u.
   SCALEE = 1.0000    scale energy and forces
   NPACO  =    256;   APACO  = 16.0  distance and # of slots for P.C.
   PSTRESS=    0.0 pullay stress

  Mass of Ions in am
   POMASS =   7.01 16.00 50.94
  Ionic Valenz
   ZVAL   =   3.00  6.00 13.00
  Atomic Wigner-Seitz radii
   RWIGS  =   1.23  0.73  1.34
  virtual crystal weights 
   VCA    =   1.00  1.00  1.00
   NELECT =    1344.0000    total number of electrons
   NUPDOWN=      -1.0000    fix difference up-down

 DOS related values:
   EMIN   =  10.00;   EMAX   =-10.00  energy-range for DOS
   EFERMI =   0.00
   ISMEAR =     1;   SIGMA  =   0.20  broadening in eV -4-tet -1-fermi 0-gaus

 Electronic relaxation 2 (details)
   IALGO  =     38    algorithm
   LDIAG  =      T    sub-space diagonalisation (order eigenvalues)
   LSUBROT=      F    optimize rotation matrix (better conditioning)
   TURBO    =      0    0=normal 1=particle mesh
   IRESTART =      0    0=no restart 2=restart with 2 vectors
   NREBOOT  =      0    no. of reboots
   NMIN     =      0    reboot dimension
   EREF     =   0.00    reference energy to select bands
   IMIX   =      4    mixing-type and parameters
     AMIX     =   0.40;   BMIX     =  1.00
     AMIX_MAG =   1.60;   BMIX_MAG =  1.00
     AMIN     =   0.10
     WC   =   100.;   INIMIX=   1;  MIXPRE=   1;  MAXMIX= -45

 Intra band minimization:
   WEIMIN = 0.0000     energy-eigenvalue tresh-hold
   EBREAK =  0.30E-09  absolut break condition
   DEPER  =   0.30     relativ break condition  

   TIME   =   0.40     timestep for ELM

  volume/ion in A,a.u.               =       8.58        57.87
  Fermi-wavevector in a.u.,A,eV,Ry     =   1.529987  2.891256 31.849331  2.340860
  Thomas-Fermi vector in A             =   2.637532
 
 Write flags
   LWAVE        =      F    write WAVECAR
   LDOWNSAMPLE  =      F    k-point downsampling of WAVECAR
   LCHARG       =      F    write CHGCAR
   LVTOT        =      F    write LOCPOT, total local potential
   LVHAR        =      F    write LOCPOT, Hartree potential only
   LELF         =      F    write electronic localiz. function (ELF)
   LORBIT       =      0    0 simple, 1 ext, 2 COOP (PROOUT), +10 PAW based schemes


 Dipole corrections
   LMONO  =      F    monopole corrections only (constant potential shift)
   LDIPOL =      F    correct potential (dipole corrections)
   IDIPOL =      0    1-x, 2-y, 3-z, 4-all directions 
   EPSILON=  1.0000000 bulk dielectric constant

 Exchange correlation treatment:
   GGA     =    --    GGA type
   LEXCH   =     8    internal setting for exchange type
   VOSKOWN=      1    Vosko Wilk Nusair interpolation
   LHFCALC =     F    Hartree Fock is set to
   LHFONE  =     F    Hartree Fock one center treatment
   AEXX    =    0.0000 exact exchange contribution

 Linear response parameters
   LEPSILON=     F    determine dielectric tensor
   LRPA    =     F    only Hartree local field effects (RPA)
   LNABLA  =     F    use nabla operator in PAW spheres
   LVEL    =     F    velocity operator in full k-point grid
   LINTERFAST=   F  fast interpolation
   KINTER  =     0    interpolate to denser k-point grid
   CSHIFT  =0.1000    complex shift for real part using Kramers Kronig
   OMEGAMAX=  -1.0    maximum frequency
   DEG_THRESHOLD= 0.2000000E-02 threshold for treating states as degnerate
   RTIME   =   -0.100 relaxation time in fs
  (WPLASMAI=    0.000 imaginary part of plasma frequency in eV, 0.658/RTIME)
   DFIELD  = 0.0000000 0.0000000 0.0000000 field for delta impulse in time
 
 Orbital magnetization related:
   ORBITALMAG=     F  switch on orbital magnetization
   LCHIMAG   =     F  perturbation theory with respect to B field
   DQ        =  0.001000  dq finite difference perturbation B field
   LLRAUG    =     F  two centre corrections for induced B field



--------------------------------------------------------------------------------------------------------


 Static calculation
 charge density and potential will be updated during run
 non-spin polarized calculation
 Variant of blocked Davidson
 Davidson routine will perform the subspace rotation
 perform sub-space diagonalisation
    after iterative eigenvector-optimisation
 modified Broyden-mixing scheme, WC =      100.0
 initial mixing is a Kerker type mixing with AMIX =  0.4000 and BMIX =      1.0000
 Hartree-type preconditioning will be used
 using additional bands          160
 real space projection scheme for non local part
 use partial core corrections
 calculate Harris-corrections to forces 
   (improved forces if not selfconsistent)
 use gradient corrections 
 use of overlap-Matrix (Vanderbilt PP)
 Methfessel and Paxton  Order N= 1 SIGMA  =   0.20


--------------------------------------------------------------------------------------------------------


  energy-cutoff  :      650.00
  volume of cell :     1646.50
      direct lattice vectors                 reciprocal lattice vectors
     9.753268520  0.000000000  0.000000000     0.102529731  0.000000000  0.033264090
     0.000000000 16.875405360  0.000000000     0.000000000  0.059257836  0.000000000
    -3.245503560  0.000000000 10.003598560     0.000000000  0.000000000  0.099964027

  length of vectors
     9.753268520 16.875405360 10.516904369     0.107790749  0.059257836  0.099964027


 
 k-points in units of 2pi/SCALE and weight: Automatic mesh                          
   0.00000000  0.00000000  0.00000000       0.037
   0.03417658  0.00000000  0.01108803       0.074
   0.00000000  0.01975261  0.00000000       0.074
   0.03417658  0.01975261  0.01108803       0.074
  -0.03417658  0.01975261 -0.01108803       0.074
   0.00000000  0.00000000  0.03332134       0.074
   0.03417658  0.00000000  0.04440937       0.074
  -0.03417658  0.00000000  0.02223331       0.074
   0.00000000  0.01975261  0.03332134       0.074
   0.03417658  0.01975261  0.04440937       0.074
  -0.03417658  0.01975261  0.02223331       0.074
   0.00000000 -0.01975261  0.03332134       0.074
   0.03417658 -0.01975261  0.04440937       0.074
  -0.03417658 -0.01975261  0.02223331       0.074
 
 k-points in reciprocal lattice and weights: Automatic mesh                          
   0.00000000  0.00000000  0.00000000       0.037
   0.33333333  0.00000000 -0.00000000       0.074
   0.00000000  0.33333333  0.00000000       0.074
   0.33333333  0.33333333 -0.00000000       0.074
  -0.33333333  0.33333333  0.00000000       0.074
   0.00000000  0.00000000  0.33333333       0.074
   0.33333333  0.00000000  0.33333333       0.074
  -0.33333333  0.00000000  0.33333333       0.074
   0.00000000  0.33333333  0.33333333       0.074
   0.33333333  0.33333333  0.33333333       0.074
  -0.33333333  0.33333333  0.33333333       0.074
   0.00000000 -0.33333333  0.33333333       0.074
   0.33333333 -0.33333333  0.33333333       0.074
  -0.33333333 -0.33333333  0.33333333       0.074
 
 position of ions in fractional coordinates (direct lattice) 
   0.25760145  0.25051305  0.01117668
   0.75708839  0.25000000  0.01117668
   0.25708839  0.75000000  0.01117668
   0.75708839  0.75000000  0.01117668
   0.25708839  0.25000000  0.51117668
   0.75708839  0.25000000  0.51117668
   0.25708839  0.75000000  0.51117668
   0.75708839  0.75000000  0.51117668
   0.00708839  0.00000000  0.01117668
   0.50708839  0.00000000  0.01117668
   0.00708839  0.50000000  0.01117668
   0.50708839  0.50000000  0.01117668
   0.00708839  0.00000000  0.51117668
   0.50708839  0.00000000  0.51117668
   0.00708839  0.50000000  0.51117668
   0.50708839  0.50000000  0.51117668
   0.49669772  0.33477492  0.00095934
   0.99669772  0.33477492  0.00095934
   0.49669772  0.83477492  0.00095934
   0.99669772  0.83477492  0.00095934
   0.49669772  0.33477492  0.50095934
   0.99669772  0.33477492  0.50095934
   0.49669772  0.83477492  0.50095934
   0.99669772  0.83477492  0.50095934
   0.24669772  0.08477492  0.00095934
   0.74669772  0.08477492  0.00095934
   0.24669772  0.58477492  0.00095934
   0.74669772  0.58477492  0.00095934
   0.24669772  0.08477492  0.50095934
   0.74669772  0.08477492  0.50095934
   0.24669772  0.58477492  0.50095934
   0.74669772  0.58477492  0.50095934
   0.49669772  0.16522508  0.00095934
   0.99669772  0.16522508  0.00095934
   0.49669772  0.66522508  0.00095934
   0.99669772  0.66522508  0.00095934
   0.49669772  0.16522508  0.50095934
   0.99669772  0.16522508  0.50095934
   0.49669772  0.66522508  0.50095934
   0.99669772  0.66522508  0.50095934
   0.24669772  0.41522508  0.00095934
   0.74669772  0.41522508  0.00095934
   0.24669772  0.91522508  0.00095934
   0.74669772  0.91522508  0.00095934
   0.24669772  0.41522508  0.50095934
   0.74669772  0.41522508  0.50095934
   0.24669772  0.91522508  0.50095934
   0.74669772  0.91522508  0.50095934
   0.37048024  0.08420231  0.37117507
   0.87048024  0.08420231  0.37117507
   0.37048024  0.58420231  0.37117507
   0.87048024  0.58420231  0.37117507
   0.37048024  0.08420231  0.87117507
   0.87048024  0.08420231  0.87117507
   0.37048024  0.58420231  0.87117507
   0.87048024  0.58420231  0.87117507
   0.12048024  0.33420231  0.37117507
   0.62048024  0.33420231  0.37117507
   0.12048024  0.83420231  0.37117507
   0.62048024  0.83420231  0.37117507
   0.12048024  0.33420231  0.87117507
   0.62048024  0.33420231  0.87117507
   0.12048024  0.83420231  0.87117507
   0.62048024  0.83420231  0.87117507
   0.37048024  0.41579769  0.37117507
   0.87048024  0.41579769  0.37117507
   0.37048024  0.91579769  0.37117507
   0.87048024  0.91579769  0.37117507
   0.37048024  0.41579769  0.87117507
   0.87048024  0.41579769  0.87117507
   0.37048024  0.91579769  0.87117507
   0.87048024  0.91579769  0.87117507
   0.12048024  0.16579769  0.37117507
   0.62048024  0.16579769  0.37117507
   0.12048024  0.66579769  0.37117507
   0.62048024  0.66579769  0.37117507
   0.12048024  0.16579769  0.87117507
   0.62048024  0.16579769  0.87117507
   0.12048024  0.66579769  0.87117507
   0.62048024  0.66579769  0.87117507
   0.37093863  0.25000000  0.37119001
   0.87093863  0.25000000  0.37119001
   0.37093863  0.75000000  0.37119001
   0.87093863  0.75000000  0.37119001
   0.37093863  0.25000000  0.87119001
   0.87093863  0.25000000  0.87119001
   0.37093863  0.75000000  0.87119001
   0.87093863  0.75000000  0.87119001
   0.12093863  0.00000000  0.37119001
   0.62093863  0.00000000  0.37119001
   0.12093863  0.50000000  0.37119001
   0.62093863  0.50000000  0.37119001
   0.12093863  0.00000000  0.87119001
   0.62093863  0.00000000  0.87119001
   0.12093863  0.50000000  0.87119001
   0.62093863  0.50000000  0.87119001
   0.37810197  0.16686163  0.14335714
   0.87810197  0.16686163  0.14335714
   0.37810197  0.66686164  0.14335714
   0.87810197  0.66686164  0.14335714
   0.37810197  0.16686163  0.64335714
   0.87810197  0.16686163  0.64335714
   0.37810197  0.66686164  0.64335714
   0.87810197  0.66686164  0.64335714
   0.12810197  0.41686163  0.14335714
   0.62810197  0.41686163  0.14335714
   0.12810197  0.91686164  0.14335714
   0.62810197  0.91686164  0.14335714
   0.12810197  0.41686163  0.64335714
   0.62810197  0.41686163  0.64335714
   0.12810197  0.91686164  0.64335714
   0.62810197  0.91686164  0.64335714
   0.37810197  0.33313837  0.14335714
   0.87810197  0.33313837  0.14335714
   0.37810197  0.83313836  0.14335714
   0.87810197  0.83313836  0.14335714
   0.37810197  0.33313837  0.64335714
   0.87810197  0.33313837  0.64335714
   0.37810197  0.83313836  0.64335714
   0.87810197  0.83313836  0.64335714
   0.12810197  0.08313837  0.14335714
   0.62810197  0.08313837  0.14335714
   0.12810197  0.58313837  0.14335714
   0.62810197  0.58313837  0.14335714
   0.12810197  0.08313837  0.64335714
   0.62810197  0.08313837  0.64335714
   0.12810197  0.58313837  0.64335714
   0.62810197  0.58313837  0.64335714
   0.36836914  0.00000000  0.11486303
   0.86836914  0.00000000  0.11486303
   0.36836914  0.50000000  0.11486303
   0.86836914  0.50000000  0.11486303
   0.36836914  0.00000000  0.61486303
   0.86836914  0.00000000  0.61486303
   0.36836914  0.50000000  0.61486303
   0.86836914  0.50000000  0.61486303
   0.11836914  0.25000000  0.11486303
   0.61836914  0.25000000  0.11486303
   0.11836914  0.75000000  0.11486303
   0.61836914  0.75000000  0.11486303
   0.11836914  0.25000000  0.61486303
   0.61836914  0.25000000  0.61486303
   0.11836914  0.75000000  0.61486303
   0.61836914  0.75000000  0.61486303
   0.48633759  0.42766666  0.25214585
   0.98633759  0.42766666  0.25214585
   0.48633759  0.92766666  0.25214585
   0.98633759  0.92766666  0.25214585
   0.48633759  0.42766666  0.75214585
   0.98633759  0.42766666  0.75214585
   0.48633759  0.92766666  0.75214585
   0.98633759  0.92766666  0.75214585
   0.23633759  0.17766666  0.25214585
   0.73633759  0.17766666  0.25214585
   0.23633759  0.67766666  0.25214585
   0.73633759  0.67766666  0.25214585
   0.23633759  0.17766666  0.75214585
   0.73633759  0.17766666  0.75214585
   0.23633759  0.67766666  0.75214585
   0.73633759  0.67766666  0.75214585
   0.48633759  0.07233334  0.25214585
   0.98633759  0.07233334  0.25214585
   0.48633759  0.57233334  0.25214585
   0.98633759  0.57233334  0.25214585
   0.48633759  0.07233334  0.75214585
   0.98633759  0.07233334  0.75214585
   0.48633759  0.57233334  0.75214585
   0.98633759  0.57233334  0.75214585
   0.23633759  0.32233334  0.25214585
   0.73633759  0.32233334  0.25214585
   0.23633759  0.82233334  0.25214585
   0.73633759  0.82233334  0.25214585
   0.23633759  0.32233334  0.75214585
   0.73633759  0.32233334  0.75214585
   0.23633759  0.82233334  0.75214585
   0.73633759  0.82233334  0.75214585
   0.27060881  0.00000000  0.25303046
   0.77060881  0.00000000  0.25303046
   0.27060881  0.50000000  0.25303046
   0.77060881  0.50000000  0.25303046
   0.27060881  0.00000000  0.75303046
   0.77060881  0.00000000  0.75303046
   0.27060881  0.50000000  0.75303046
   0.77060881  0.50000000  0.75303046
   0.02060881  0.25000000  0.25303046
   0.52060881  0.25000000  0.25303046
   0.02060881  0.75000000  0.25303046
   0.52060881  0.75000000  0.25303046
   0.02060881  0.25000000  0.75303046
   0.52060881  0.25000000  0.75303046
   0.02060881  0.75000000  0.75303046
   0.52060881  0.75000000  0.75303046
 
 position of ions in cartesian coordinates  (Angst):
   2.47618214  4.22750932  0.11180702
   7.34781246  4.21885134  0.11180702
   2.47117820 12.65655402  0.11180702
   7.34781246 12.65655402  0.11180702
   0.84842642  4.21885134  5.11360630
   5.72506068  4.21885134  5.11360630
   0.84842642 12.65655402  5.11360630
   5.72506068 12.65655402  5.11360630
   0.03286107  0.00000000  0.11180702
   4.90949533  0.00000000  0.11180702
   0.03286107  8.43770268  0.11180702
   4.90949533  8.43770268  0.11180702
  -1.58989071  0.00000000  5.11360630
   3.28674355  0.00000000  5.11360630
  -1.58989071  8.43770268  5.11360630
   3.28674355  8.43770268  5.11360630
   4.84131268  5.64946256  0.00959690
   9.71794694  5.64946256  0.00959690
   4.84131268 14.08716524  0.00959690
   9.71794694 14.08716524  0.00959690
   3.21856090  5.64946256  5.01139618
   8.09519516  5.64946256  5.01139618
   3.21856090 14.08716524  5.01139618
   8.09519516 14.08716524  5.01139618
   2.40299555  1.43061122  0.00959690
   7.27962981  1.43061122  0.00959690
   2.40299555  9.86831390  0.00959690
   7.27962981  9.86831390  0.00959690
   0.78024377  1.43061122  5.01139618
   5.65687803  1.43061122  5.01139618
   0.78024377  9.86831390  5.01139618
   5.65687803  9.86831390  5.01139618
   4.84131268  2.78824012  0.00959690
   9.71794694  2.78824012  0.00959690
   4.84131268 11.22594280  0.00959690
   9.71794694 11.22594280  0.00959690
   3.21856090  2.78824012  5.01139618
   8.09519516  2.78824012  5.01139618
   3.21856090 11.22594280  5.01139618
   8.09519516 11.22594280  5.01139618
   2.40299555  7.00709146  0.00959690
   7.27962981  7.00709146  0.00959690
   2.40299555 15.44479414  0.00959690
   7.27962981 15.44479414  0.00959690
   0.78024377  7.00709146  5.01139618
   5.65687803  7.00709146  5.01139618
   0.78024377 15.44479414  5.01139618
   5.65687803 15.44479414  5.01139618
   2.40874319  1.42094811  3.71308645
   7.28537745  1.42094811  3.71308645
   2.40874319  9.85865079  3.71308645
   7.28537745  9.85865079  3.71308645
   0.78599141  1.42094811  8.71488573
   5.66262567  1.42094811  8.71488573
   0.78599141  9.85865079  8.71488573
   5.66262567  9.85865079  8.71488573
  -0.02957394  5.63979945  3.71308645
   4.84706032  5.63979945  3.71308645
  -0.02957394 14.07750213  3.71308645
   4.84706032 14.07750213  3.71308645
  -1.65232572  5.63979945  8.71488573
   3.22430854  5.63979945  8.71488573
  -1.65232572 14.07750213  8.71488573
   3.22430854 14.07750213  8.71488573
   2.40874319  7.01675457  3.71308645
   7.28537745  7.01675457  3.71308645
   2.40874319 15.45445725  3.71308645
   7.28537745 15.45445725  3.71308645
   0.78599141  7.01675457  8.71488573
   5.66262567  7.01675457  8.71488573
   0.78599141 15.45445725  8.71488573
   5.66262567 15.45445725  8.71488573
  -0.02957394  2.79790323  3.71308645
   4.84706032  2.79790323  3.71308645
  -0.02957394 11.23560591  3.71308645
   4.84706032 11.23560591  3.71308645
  -1.65232572  2.79790323  8.71488573
   3.22430854  2.79790323  8.71488573
  -1.65232572 11.23560591  8.71488573
   3.22430854 11.23560591  8.71488573
   2.41316558  4.21885134  3.71323580
   7.28979984  4.21885134  3.71323580
   2.41316558 12.65655402  3.71323580
   7.28979984 12.65655402  3.71323580
   0.79041380  4.21885134  8.71503508
   5.66704806  4.21885134  8.71503508
   0.79041380 12.65655402  8.71503508
   5.66704806 12.65655402  8.71503508
  -0.02515155  0.00000000  3.71323580
   4.85148271  0.00000000  3.71323580
  -0.02515155  8.43770268  3.71323580
   4.85148271  8.43770268  3.71323580
  -1.64790333  0.00000000  8.71503508
   3.22873093  0.00000000  8.71503508
  -1.64790333  8.43770268  8.71503508
   3.22873093  8.43770268  8.71503508
   3.22246393  2.81585773  1.43408728
   8.09909819  2.81585773  1.43408728
   3.22246393 11.25356041  1.43408728
   8.09909819 11.25356041  1.43408728
   1.59971215  2.81585773  6.43588656
   6.47634641  2.81585773  6.43588656
   1.59971215 11.25356041  6.43588656
   6.47634641 11.25356041  6.43588656
   0.78414680  7.03470907  1.43408728
   5.66078106  7.03470907  1.43408728
   0.78414680 15.47241175  1.43408728
   5.66078106 15.47241175  1.43408728
  -0.83860498  7.03470907  6.43588656
   4.03802928  7.03470907  6.43588656
  -0.83860498 15.47241175  6.43588656
   4.03802928 15.47241175  6.43588656
   3.22246393  5.62184495  1.43408728
   8.09909819  5.62184495  1.43408728
   3.22246393 14.05954763  1.43408728
   8.09909819 14.05954763  1.43408728
   1.59971215  5.62184495  6.43588656
   6.47634641  5.62184495  6.43588656
   1.59971215 14.05954763  6.43588656
   6.47634641 14.05954763  6.43588656
   0.78414680  1.40299361  1.43408728
   5.66078106  1.40299361  1.43408728
   0.78414680  9.84069629  1.43408728
   5.66078106  9.84069629  1.43408728
  -0.83860498  1.40299361  6.43588656
   4.03802928  1.40299361  6.43588656
  -0.83860498  9.84069629  6.43588656
   4.03802928  9.84069629  6.43588656
   3.22001476  0.00000000  1.14904364
   8.09664902  0.00000000  1.14904364
   3.22001476  8.43770268  1.14904364
   8.09664902  8.43770268  1.14904364
   1.59726298  0.00000000  6.15084292
   6.47389724  0.00000000  6.15084292
   1.59726298  8.43770268  6.15084292
   6.47389724  8.43770268  6.15084292
   0.78169763  4.21885134  1.14904364
   5.65833189  4.21885134  1.14904364
   0.78169763 12.65655402  1.14904364
   5.65833189 12.65655402  1.14904364
  -0.84105415  4.21885134  6.15084292
   4.03558011  4.21885134  6.15084292
  -0.84105415 12.65655402  6.15084292
   4.03558011 12.65655402  6.15084292
   3.92504085  7.21704833  2.52236586
   8.80167511  7.21704833  2.52236586
   3.92504085 15.65475101  2.52236586
   8.80167511 15.65475101  2.52236586
   2.30228907  7.21704833  7.52416514
   7.17892333  7.21704833  7.52416514
   2.30228907 15.65475101  7.52416514
   7.17892333 15.65475101  7.52416514
   1.48672372  2.99819699  2.52236586
   6.36335798  2.99819699  2.52236586
   1.48672372 11.43589967  2.52236586
   6.36335798 11.43589967  2.52236586
  -0.13602806  2.99819699  7.52416514
   4.74060620  2.99819699  7.52416514
  -0.13602806 11.43589967  7.52416514
   4.74060620 11.43589967  7.52416514
   3.92504085  1.22065435  2.52236586
   8.80167511  1.22065435  2.52236586
   3.92504085  9.65835703  2.52236586
   8.80167511  9.65835703  2.52236586
   2.30228907  1.22065435  7.52416514
   7.17892333  1.22065435  7.52416514
   2.30228907  9.65835703  7.52416514
   7.17892333  9.65835703  7.52416514
   1.48672372  5.43950569  2.52236586
   6.36335798  5.43950569  2.52236586
   1.48672372 13.87720837  2.52236586
   6.36335798 13.87720837  2.52236586
  -0.13602806  5.43950569  7.52416514
   4.74060620  5.43950569  7.52416514
  -0.13602806 13.87720837  7.52416514
   4.74060620 13.87720837  7.52416514
   1.81810908  0.00000000  2.53121515
   6.69474334  0.00000000  2.53121515
   1.81810908  8.43770268  2.53121515
   6.69474334  8.43770268  2.53121515
   0.19535730  0.00000000  7.53301443
   5.07199156  0.00000000  7.53301443
   0.19535730  8.43770268  7.53301443
   5.07199156  8.43770268  7.53301443
  -0.62020805  4.21885134  2.53121515
   4.25642621  4.21885134  2.53121515
  -0.62020805 12.65655402  2.53121515
   4.25642621 12.65655402  2.53121515
  -2.24295983  4.21885134  7.53301443
   2.63367443  4.21885134  7.53301443
  -2.24295983 12.65655402  7.53301443
   2.63367443 12.65655402  7.53301443
 


--------------------------------------------------------------------------------------------------------


 k-point  1 :   0.0000 0.0000 0.0000  plane waves:   61923
 k-point  2 :   0.3333 0.0000-0.0000  plane waves:   61926
 k-point  3 :   0.0000 0.3333 0.0000  plane waves:   61974
 k-point  4 :   0.3333 0.3333-0.0000  plane waves:   61934
 k-point  5 :  -0.3333 0.3333 0.0000  plane waves:   61934
 k-point  6 :   0.0000 0.0000 0.3333  plane waves:   61981
 k-point  7 :   0.3333 0.0000 0.3333  plane waves:   61944
 k-point  8 :  -0.3333 0.0000 0.3333  plane waves:   61943
 k-point  9 :   0.0000 0.3333 0.3333  plane waves:   61971
 k-point 10 :   0.3333 0.3333 0.3333  plane waves:   61984
 k-point 11 :  -0.3333 0.3333 0.3333  plane waves:   61968
 k-point 12 :   0.0000-0.3333 0.3333  plane waves:   61971
 k-point 13 :   0.3333-0.3333 0.3333  plane waves:   61984
 k-point 14 :  -0.3333-0.3333 0.3333  plane waves:   61968

 maximum and minimum number of plane-waves per node :     61984    61923

 maximum number of plane-waves:     61984
 maximum index in each direction: 
   IXMAX=   20   IYMAX=   35   IZMAX=   21
   IXMIN=  -20   IYMIN=  -35   IZMIN=  -22


 serial   3D FFT for wavefunctions
 parallel 3D FFT for charge:
    minimum data exchange during FFTs selected (reduces bandwidth)


 total amount of memory used by VASP MPI-rank0   612099. kBytes
=======================================================================

   base      :      30000. kBytes
   nonlr-proj:     100322. kBytes
   fftplans  :      44763. kBytes
   grid      :      62039. kBytes
   one-center:       2985. kBytes
   wavefun   :     371990. kBytes
 
     INWAV:  cpu time    0.0000: real time    0.0002
 Broyden mixing: mesh for mixing (old mesh)
   NGX = 41   NGY = 71   NGZ = 43
  (NGX  =168   NGY  =280   NGZ  =180)
  gives a total of 125173 points

 initial charge density was supplied:
 charge density of overlapping atoms calculated
 number of electron    1344.0000000 magnetization 
 keeping initial charge density in first step


--------------------------------------------------------------------------------------------------------


 Maximum index for non-local projection operator         6160
 Maximum index for augmentation-charges         7347 (set IRDMAX)


--------------------------------------------------------------------------------------------------------


 First call to EWALD:  gamma=   0.150
 Maximum number of real-space cells 3x 2x 3
 Maximum number of reciprocal cells 2x 4x 2

    FEWALD:  cpu time    0.5000: real time    0.5030


--------------------------------------- Iteration      1(   1)  ---------------------------------------


    POTLOK:  cpu time    0.4880: real time    0.7843
    SETDIJ:  cpu time    0.5000: real time    0.9303
     EDDAV:  cpu time 1000.2200: real time  994.0123
       DOS:  cpu time    0.0120: real time    0.0152
    --------------------------------------------
      LOOP:  cpu time 1001.2200: real time  995.7422

 eigenvalue-minimisations  : 23296
 total energy-change (2. order) : 0.2266198E+05  (-0.8147548E+05)
 number of electron    1344.0000000 magnetization 
 augmentation part     1344.0000000 magnetization 

 Free energy of the ion-electron system (eV)
  ---------------------------------------------------
  alpha Z        PSCENC =      5797.92193983
  Ewald energy   TEWEN  =    -98294.56175558
  -Hartree energ DENC   =    -41208.61435451
  -exchange      EXHF   =         0.00000000
  -V(xc)+E(xc)   XCENC  =      6739.16347537
  PAW double counting   =    111306.12853196  -112957.50565569
  entropy T*S    EENTRO =         0.00848893
  eigenvalues    EBANDS =      6337.60997423
  atomic energy  EATOM  =    144941.82602124
  Solvation  Ediel_sol  =         0.00000000
  ---------------------------------------------------
  free energy    TOTEN  =     22661.97666577 eV

  energy without entropy =    22661.96817684  energy(sigma->0) =    22661.97383613


--------------------------------------------------------------------------------------------------------




--------------------------------------- Iteration      1(   2)  ---------------------------------------


     EDDAV:  cpu time  959.3000: real time  960.0287
       DOS:  cpu time    0.0400: real time    0.0583
    --------------------------------------------
      LOOP:  cpu time  959.3400: real time  960.0870

 eigenvalue-minimisations  : 23296
 total energy-change (2. order) :-0.2114386E+05  (-0.1995115E+05)
 number of electron    1344.0000000 magnetization 
 augmentation part     1344.0000000 magnetization 

 Free energy of the ion-electron system (eV)
  ---------------------------------------------------
  alpha Z        PSCENC =      5797.92193983
  Ewald energy   TEWEN  =    -98294.56175558
  -Hartree energ DENC   =    -41208.61435451
  -exchange      EXHF   =         0.00000000
  -V(xc)+E(xc)   XCENC  =      6739.16347537
  PAW double counting   =    111306.12853196  -112957.50565569
  entropy T*S    EENTRO =         0.01549432
  eigenvalues    EBANDS =    -14806.25865824
  atomic energy  EATOM  =    144941.82602124
  Solvation  Ediel_sol  =         0.00000000
  ---------------------------------------------------
  free energy    TOTEN  =      1518.11503868 eV

  energy without entropy =     1518.09954436  energy(sigma->0) =     1518.10987391


--------------------------------------------------------------------------------------------------------




--------------------------------------- Iteration      1(   3)  ---------------------------------------


     EDDAV:  cpu time 1125.0640: real time 1119.7546
       DOS:  cpu time    0.0120: real time    0.0145
    --------------------------------------------
      LOOP:  cpu time 1125.0760: real time 1119.7691

 eigenvalue-minimisations  : 27744
 total energy-change (2. order) :-0.2991496E+04  (-0.2897727E+04)
 number of electron    1344.0000000 magnetization 
 augmentation part     1344.0000000 magnetization 

 Free energy of the ion-electron system (eV)
  ---------------------------------------------------
  alpha Z        PSCENC =      5797.92193983
  Ewald energy   TEWEN  =    -98294.56175558
  -Hartree energ DENC   =    -41208.61435451
  -exchange      EXHF   =         0.00000000
  -V(xc)+E(xc)   XCENC  =      6739.16347537
  PAW double counting   =    111306.12853196  -112957.50565569
  entropy T*S    EENTRO =         0.10204364
  eigenvalues    EBANDS =    -17797.84160458
  atomic energy  EATOM  =    144941.82602124
  Solvation  Ediel_sol  =         0.00000000
  ---------------------------------------------------
  free energy    TOTEN  =     -1473.38135833 eV

  energy without entropy =    -1473.48340197  energy(sigma->0) =    -1473.41537288


--------------------------------------------------------------------------------------------------------




--------------------------------------- Iteration      1(   4)  ---------------------------------------


     EDDAV:  cpu time 1215.2400: real time 1211.1283
       DOS:  cpu time    0.0120: real time    0.0232
    --------------------------------------------
      LOOP:  cpu time 1215.2520: real time 1211.1515

 eigenvalue-minimisations  : 31488
 total energy-change (2. order) :-0.2658337E+03  (-0.2629987E+03)
 number of electron    1344.0000000 magnetization 
 augmentation part     1344.0000000 magnetization 

 Free energy of the ion-electron system (eV)
  ---------------------------------------------------
  alpha Z        PSCENC =      5797.92193983
  Ewald energy   TEWEN  =    -98294.56175558
  -Hartree energ DENC   =    -41208.61435451
  -exchange      EXHF   =         0.00000000
  -V(xc)+E(xc)   XCENC  =      6739.16347537
  PAW double counting   =    111306.12853196  -112957.50565569
  entropy T*S    EENTRO =         0.24305001
  eigenvalues    EBANDS =    -18063.81634410
  atomic energy  EATOM  =    144941.82602124
  Solvation  Ediel_sol  =         0.00000000
  ---------------------------------------------------
  free energy    TOTEN  =     -1739.21509148 eV

  energy without entropy =    -1739.45814149  energy(sigma->0) =    -1739.29610815


--------------------------------------------------------------------------------------------------------




--------------------------------------- Iteration      1(   5)  ---------------------------------------


     EDDAV:  cpu time 1652.2920: real time 1631.9093
       DOS:  cpu time    0.0200: real time    0.0198
    CHARGE:  cpu time   19.0080: real time   31.5967
    MIXING:  cpu time    0.0280: real time    0.0700
    --------------------------------------------
      LOOP:  cpu time 1671.3480: real time 1663.5960

 eigenvalue-minimisations  : 43360
 total energy-change (2. order) :-0.2140943E+02  (-0.2136840E+02)
 number of electron    1344.0000013 magnetization 
 augmentation part      320.0266828 magnetization 

 Broyden mixing:
  rms(total) = 0.20242E+02    rms(broyden)= 0.20241E+02
  rms(prec ) = 0.21137E+02
  weight for this iteration     100.00

 Free energy of the ion-electron system (eV)
  ---------------------------------------------------
  alpha Z        PSCENC =      5797.92193983
  Ewald energy   TEWEN  =    -98294.56175558
  -Hartree energ DENC   =    -41208.61435451
  -exchange      EXHF   =         0.00000000
  -V(xc)+E(xc)   XCENC  =      6739.16347537
  PAW double counting   =    111306.12853196  -112957.50565569
  entropy T*S    EENTRO =         0.24668187
  eigenvalues    EBANDS =    -18085.22941073
  atomic energy  EATOM  =    144941.82602124
  Solvation  Ediel_sol  =         0.00000000
  ---------------------------------------------------
  free energy    TOTEN  =     -1760.62452625 eV

  energy without entropy =    -1760.87120812  energy(sigma->0) =    -1760.70675354


--------------------------------------------------------------------------------------------------------




--------------------------------------- Iteration      1(   6)  ---------------------------------------


    POTLOK:  cpu time    0.7280: real time    0.7272
    SETDIJ:  cpu time    1.1920: real time    1.1904
     EDDAV:  cpu time 1394.1440: real time 1390.4644
       DOS:  cpu time    0.0200: real time    0.0199
    CHARGE:  cpu time   20.1840: real time   32.5589
    MIXING:  cpu time    0.0840: real time    0.0834
    --------------------------------------------
      LOOP:  cpu time 1416.3520: real time 1425.0442

 eigenvalue-minimisations  : 31648
 total energy-change (2. order) : 0.2849651E+03  (-0.2201131E+03)
 number of electron    1344.0000014 magnetization 
 augmentation part      350.8252100 magnetization 

 Broyden mixing:
  rms(total) = 0.66939E+01    rms(broyden)= 0.66927E+01
  rms(prec ) = 0.74715E+01
  weight for this iteration     100.00

 eigenvalues of (default mixing * dielectric matrix)
  average eigenvalue GAMMA=   0.8473
  0.8473

 Free energy of the ion-electron system (eV)
  ---------------------------------------------------
  alpha Z        PSCENC =      5797.92193983
  Ewald energy   TEWEN  =    -98294.56175558
  -Hartree energ DENC   =    -40038.74432519
  -exchange      EXHF   =         0.00000000
  -V(xc)+E(xc)   XCENC  =      6753.66044670
  PAW double counting   =    129626.60268643  -131345.47330183
  entropy T*S    EENTRO =         0.40655964
  eigenvalues    EBANDS =    -18917.29771843
  atomic energy  EATOM  =    144941.82602124
  Solvation  Ediel_sol  =         0.00000000
  ---------------------------------------------------
  free energy    TOTEN  =     -1475.65944720 eV

  energy without entropy =    -1476.06600684  energy(sigma->0) =    -1475.79496708


--------------------------------------------------------------------------------------------------------




--------------------------------------- Iteration      1(   7)  ---------------------------------------


    POTLOK:  cpu time    0.6920: real time    0.6918
    SETDIJ:  cpu time    1.1320: real time    1.2655
     EDDAV:  cpu time 1380.7000: real time 1383.2868
       DOS:  cpu time    0.0160: real time    0.0150
    CHARGE:  cpu time   26.3360: real time   29.4734
    MIXING:  cpu time    0.0160: real time    0.0294
    --------------------------------------------
      LOOP:  cpu time 1408.8920: real time 1414.7618

 eigenvalue-minimisations  : 29632
 total energy-change (2. order) : 0.1506237E+02  (-0.6455129E+02)
 number of electron    1344.0000013 magnetization 
 augmentation part      326.2847894 magnetization 

 Broyden mixing:
  rms(total) = 0.76810E+01    rms(broyden)= 0.76809E+01
  rms(prec ) = 0.78911E+01
  weight for this iteration     100.00

 eigenvalues of (default mixing * dielectric matrix)
  average eigenvalue GAMMA=   1.4337
  2.2960  0.5715

 Free energy of the ion-electron system (eV)
  ---------------------------------------------------
  alpha Z        PSCENC =      5797.92193983
  Ewald energy   TEWEN  =    -98294.56175558
  -Hartree energ DENC   =    -40766.26033439
  -exchange      EXHF   =         0.00000000
  -V(xc)+E(xc)   XCENC  =      6756.76180626
  PAW double counting   =    136640.25460363  -138394.54829706
  entropy T*S    EENTRO =         0.28079289
  eigenvalues    EBANDS =    -18142.27184929
  atomic energy  EATOM  =    144941.82602124
  Solvation  Ediel_sol  =         0.00000000
  ---------------------------------------------------
  free energy    TOTEN  =     -1460.59707247 eV

  energy without entropy =    -1460.87786536  energy(sigma->0) =    -1460.69067010


--------------------------------------------------------------------------------------------------------




--------------------------------------- Iteration      1(   8)  ---------------------------------------


    POTLOK:  cpu time    0.3840: real time    0.6470
    SETDIJ:  cpu time    1.7960: real time    1.5323
     EDDAV:  cpu time 1505.6720: real time 1492.7879
       DOS:  cpu time    0.1000: real time    0.1005
    CHARGE:  cpu time   18.4880: real time   29.0459
    MIXING:  cpu time    0.0200: real time    0.0478
    --------------------------------------------
      LOOP:  cpu time 1526.4600: real time 1524.1615

 eigenvalue-minimisations  : 31744
 total energy-change (2. order) : 0.7482631E+01  (-0.1018613E+02)
 number of electron    1344.0000013 magnetization 
 augmentation part      335.7589100 magnetization 

 Broyden mixing:
  rms(total) = 0.52679E+01    rms(broyden)= 0.52678E+01
  rms(prec ) = 0.62255E+01
  weight for this iteration     100.00

 eigenvalues of (default mixing * dielectric matrix)
  average eigenvalue GAMMA=   1.1923
  2.6664  0.5963  0.3142

 Free energy of the ion-electron system (eV)
  ---------------------------------------------------
  alpha Z        PSCENC =      5797.92193983
  Ewald energy   TEWEN  =    -98294.56175558
  -Hartree energ DENC   =    -40066.81545744
  -exchange      EXHF   =         0.00000000
  -V(xc)+E(xc)   XCENC  =      6733.06240737
  PAW double counting   =    153958.52421613  -155769.40985409
  entropy T*S    EENTRO =         0.25622688
  eigenvalues    EBANDS =    -18753.91818598
  atomic energy  EATOM  =    144941.82602124
  Solvation  Ediel_sol  =         0.00000000
  ---------------------------------------------------
  free energy    TOTEN  =     -1453.11444164 eV

  energy without entropy =    -1453.37066852  energy(sigma->0) =    -1453.19985060


--------------------------------------------------------------------------------------------------------




--------------------------------------- Iteration      1(   9)  ---------------------------------------


    POTLOK:  cpu time    0.3600: real time    0.7091
    SETDIJ:  cpu time    0.8400: real time    1.3164
     EDDAV:  cpu time 1475.6600: real time 1436.8782
       DOS:  cpu time    0.0160: real time    0.0147
    CHARGE:  cpu time   22.2920: real time   31.5162
    MIXING:  cpu time    0.0640: real time    0.0630
    --------------------------------------------
      LOOP:  cpu time 1499.2320: real time 1470.4975

 eigenvalue-minimisations  : 33056
 total energy-change (2. order) :-0.4566097E+01  (-0.8182128E+01)
 number of electron    1344.0000013 magnetization 
 augmentation part      338.6149548 magnetization 

 Broyden mixing:
  rms(total) = 0.42881E+01    rms(broyden)= 0.42879E+01
  rms(prec ) = 0.50103E+01
  weight for this iteration     100.00

 eigenvalues of (default mixing * dielectric matrix)
  average eigenvalue GAMMA=   1.0096
  2.4529  0.8452  0.5564  0.1839

 Free energy of the ion-electron system (eV)
  ---------------------------------------------------
  alpha Z        PSCENC =      5797.92193983
  Ewald energy   TEWEN  =    -98294.56175558
  -Hartree energ DENC   =    -39973.91429229
  -exchange      EXHF   =         0.00000000
  -V(xc)+E(xc)   XCENC  =      6731.60088741
  PAW double counting   =    158096.59216800  -159923.08219226
  entropy T*S    EENTRO =         0.33612291
  eigenvalues    EBANDS =    -18834.39943838
  atomic energy  EATOM  =    144941.82602124
  Solvation  Ediel_sol  =         0.00000000
  ---------------------------------------------------
  free energy    TOTEN  =     -1457.68053912 eV

  energy without entropy =    -1458.01666204  energy(sigma->0) =    -1457.79258009


--------------------------------------------------------------------------------------------------------




--------------------------------------- Iteration      1(  10)  ---------------------------------------


    POTLOK:  cpu time    0.7160: real time    0.7182
    SETDIJ:  cpu time    0.7680: real time    1.1091
     EDDAV:  cpu time 1429.5240: real time 1419.1569
       DOS:  cpu time    0.2040: real time    0.2042
    CHARGE:  cpu time   21.6880: real time   31.0882
    MIXING:  cpu time    0.0480: real time    0.0482
    --------------------------------------------
      LOOP:  cpu time 1452.9480: real time 1452.3248

 eigenvalue-minimisations  : 32480
 total energy-change (2. order) : 0.1686387E+02  (-0.2389736E+01)
 number of electron    1344.0000013 magnetization 
 augmentation part      334.9099580 magnetization 

 Broyden mixing:
  rms(total) = 0.10961E+01    rms(broyden)= 0.10960E+01
  rms(prec ) = 0.13087E+01
  weight for this iteration     100.00

 eigenvalues of (default mixing * dielectric matrix)
  average eigenvalue GAMMA=   0.9390
  2.4980  0.7203  0.7203  0.5610  0.1952

 Free energy of the ion-electron system (eV)
  ---------------------------------------------------
  alpha Z        PSCENC =      5797.92193983
  Ewald energy   TEWEN  =    -98294.56175558
  -Hartree energ DENC   =    -40150.43193929
  -exchange      EXHF   =         0.00000000
  -V(xc)+E(xc)   XCENC  =      6739.28990596
  PAW double counting   =    157183.99721373  -159011.64664560
  entropy T*S    EENTRO =         0.38545910
  eigenvalues    EBANDS =    -18647.59686753
  atomic energy  EATOM  =    144941.82602124
  Solvation  Ediel_sol  =         0.00000000
  ---------------------------------------------------
  free energy    TOTEN  =     -1440.81666815 eV

  energy without entropy =    -1441.20212725  energy(sigma->0) =    -1440.94515452


--------------------------------------------------------------------------------------------------------




--------------------------------------- Iteration      1(  11)  ---------------------------------------


    POTLOK:  cpu time    0.6240: real time    0.7255
    SETDIJ:  cpu time    0.8480: real time    0.8854
     EDDAV:  cpu time 1486.2400: real time 1471.4182
       DOS:  cpu time    0.0160: real time    0.0138
    CHARGE:  cpu time   20.4360: real time   29.1646
    MIXING:  cpu time    0.0240: real time    0.0566
    --------------------------------------------
      LOOP:  cpu time 1508.1880: real time 1502.2641

 eigenvalue-minimisations  : 34496
 total energy-change (2. order) : 0.8330672E+00  (-0.2729222E+00)
 number of electron    1344.0000013 magnetization 
 augmentation part      334.5124253 magnetization 

 Broyden mixing:
  rms(total) = 0.66095E+00    rms(broyden)= 0.66091E+00
  rms(prec ) = 0.78823E+00
  weight for this iteration     100.00

 eigenvalues of (default mixing * dielectric matrix)
  average eigenvalue GAMMA=   0.8159
  2.5117  0.7028  0.7028  0.5680  0.1869  0.2234

 Free energy of the ion-electron system (eV)
  ---------------------------------------------------
  alpha Z        PSCENC =      5797.92193983
  Ewald energy   TEWEN  =    -98294.56175558
  -Hartree energ DENC   =    -40163.15554748
  -exchange      EXHF   =         0.00000000
  -V(xc)+E(xc)   XCENC  =      6740.11531973
  PAW double counting   =    157518.24427341  -159346.72541112
  entropy T*S    EENTRO =         0.38030371
  eigenvalues    EBANDS =    -18634.02874466
  atomic energy  EATOM  =    144941.82602124
  Solvation  Ediel_sol  =         0.00000000
  ---------------------------------------------------
  free energy    TOTEN  =     -1439.98360093 eV

  energy without entropy =    -1440.36390463  energy(sigma->0) =    -1440.11036883


--------------------------------------------------------------------------------------------------------




--------------------------------------- Iteration      1(  12)  ---------------------------------------


    POTLOK:  cpu time    0.4280: real time    0.6758
    SETDIJ:  cpu time    1.4320: real time    1.4331
     EDDAV:  cpu time 1413.8640: real time 1387.3822
       DOS:  cpu time    0.1120: real time    0.1243
    CHARGE:  cpu time   19.3080: real time   31.6408
    MIXING:  cpu time    0.0640: real time    0.0642
    --------------------------------------------
      LOOP:  cpu time 1435.2080: real time 1421.3205

 eigenvalue-minimisations  : 31072
 total energy-change (2. order) : 0.2011450E+00  (-0.6318677E-01)
 number of electron    1344.0000013 magnetization 
 augmentation part      334.4417353 magnetization 

 Broyden mixing:
  rms(total) = 0.39471E+00    rms(broyden)= 0.39469E+00
  rms(prec ) = 0.45525E+00
  weight for this iteration     100.00

 eigenvalues of (default mixing * dielectric matrix)
  average eigenvalue GAMMA=   0.7992
  2.5428  0.7916  0.6727  0.6727  0.5513  0.1908  0.1722

 Free energy of the ion-electron system (eV)
  ---------------------------------------------------
  alpha Z        PSCENC =      5797.92193983
  Ewald energy   TEWEN  =    -98294.56175558
  -Hartree energ DENC   =    -40165.26485643
  -exchange      EXHF   =         0.00000000
  -V(xc)+E(xc)   XCENC  =      6740.19170323
  PAW double counting   =    157622.38961502  -159450.87067865
  entropy T*S    EENTRO =         0.38955160
  eigenvalues    EBANDS =    -18631.80399613
  atomic energy  EATOM  =    144941.82602124
  Solvation  Ediel_sol  =         0.00000000
  ---------------------------------------------------
  free energy    TOTEN  =     -1439.78245589 eV

  energy without entropy =    -1440.17200748  energy(sigma->0) =    -1439.91230642


--------------------------------------------------------------------------------------------------------




--------------------------------------- Iteration      1(  13)  ---------------------------------------


    POTLOK:  cpu time    0.6800: real time    0.6787
    SETDIJ:  cpu time    1.5680: real time    1.5683
     EDDAV:  cpu time 1420.3280: real time 1395.6920
       DOS:  cpu time    0.1760: real time    0.1761
    CHARGE:  cpu time   18.8960: real time   28.6917
    MIXING:  cpu time    0.0480: real time    0.0680
    --------------------------------------------
      LOOP:  cpu time 1441.6960: real time 1426.8748

 eigenvalue-minimisations  : 32096
 total energy-change (2. order) : 0.4805317E-01  (-0.2032249E-01)
 number of electron    1344.0000013 magnetization 
 augmentation part      334.3970005 magnetization 

 Broyden mixing:
  rms(total) = 0.32011E+00    rms(broyden)= 0.32011E+00
  rms(prec ) = 0.37005E+00
  weight for this iteration     100.00

 eigenvalues of (default mixing * dielectric matrix)
  average eigenvalue GAMMA=   0.7743
  2.5561  0.7925  0.7925  0.8111  0.5528  0.3270  0.1957  0.1671

 Free energy of the ion-electron system (eV)
  ---------------------------------------------------
  alpha Z        PSCENC =      5797.92193983
  Ewald energy   TEWEN  =    -98294.56175558
  -Hartree energ DENC   =    -40169.90999245
  -exchange      EXHF   =         0.00000000
  -V(xc)+E(xc)   XCENC  =      6740.26528194
  PAW double counting   =    157822.15842232  -159650.39046344
  entropy T*S    EENTRO =         0.38930275
  eigenvalues    EBANDS =    -18627.43315933
  atomic energy  EATOM  =    144941.82602124
  Solvation  Ediel_sol  =         0.00000000
  ---------------------------------------------------
  free energy    TOTEN  =     -1439.73440272 eV

  energy without entropy =    -1440.12370547  energy(sigma->0) =    -1439.86417031


--------------------------------------------------------------------------------------------------------




--------------------------------------- Iteration      1(  14)  ---------------------------------------


    POTLOK:  cpu time    0.3400: real time    0.6707
    SETDIJ:  cpu time    0.7560: real time    1.0677
     EDDAV:  cpu time 1343.7920: real time 1332.9750
       DOS:  cpu time    0.0120: real time    0.0136
    CHARGE:  cpu time   24.8400: real time   31.0315
    MIXING:  cpu time    0.0360: real time    0.0730
    --------------------------------------------
      LOOP:  cpu time 1369.7760: real time 1365.8314

 eigenvalue-minimisations  : 31776
 total energy-change (2. order) : 0.3101661E-01  (-0.1172562E-01)
 number of electron    1344.0000013 magnetization 
 augmentation part      334.3699219 magnetization 

 Broyden mixing:
  rms(total) = 0.26514E+00    rms(broyden)= 0.26513E+00
  rms(prec ) = 0.30789E+00
  weight for this iteration     100.00

 eigenvalues of (default mixing * dielectric matrix)
  average eigenvalue GAMMA=   0.8038
  2.5471  1.0614  1.0614  0.7823  0.6520  0.5556  0.1925  0.2178  0.1642

 Free energy of the ion-electron system (eV)
  ---------------------------------------------------
  alpha Z        PSCENC =      5797.92193983
  Ewald energy   TEWEN  =    -98294.56175558
  -Hartree energ DENC   =    -40174.48340329
  -exchange      EXHF   =         0.00000000
  -V(xc)+E(xc)   XCENC  =      6740.36805699
  PAW double counting   =    157913.18954335  -159740.97341601
  entropy T*S    EENTRO =         0.39017997
  eigenvalues    EBANDS =    -18623.38055261
  atomic energy  EATOM  =    144941.82602124
  Solvation  Ediel_sol  =         0.00000000
  ---------------------------------------------------
  free energy    TOTEN  =     -1439.70338611 eV

  energy without entropy =    -1440.09356608  energy(sigma->0) =    -1439.83344610


--------------------------------------------------------------------------------------------------------




--------------------------------------- Iteration      1(  15)  ---------------------------------------


    POTLOK:  cpu time    0.7720: real time    0.7846
    SETDIJ:  cpu time    0.8640: real time    1.3840
     EDDAV:  cpu time 1348.1280: real time 1343.9317
       DOS:  cpu time    0.1440: real time    0.1443
    CHARGE:  cpu time   22.5320: real time   32.8177
    MIXING:  cpu time    0.0760: real time    0.1001
    --------------------------------------------
      LOOP:  cpu time 1372.5160: real time 1379.1623

 eigenvalue-minimisations  : 31520
 total energy-change (2. order) : 0.1873619E-01  (-0.1052991E-01)
 number of electron    1344.0000013 magnetization 
 augmentation part      334.3362399 magnetization 

 Broyden mixing:
  rms(total) = 0.21302E+00    rms(broyden)= 0.21301E+00
  rms(prec ) = 0.25315E+00
  weight for this iteration     100.00

 eigenvalues of (default mixing * dielectric matrix)
  average eigenvalue GAMMA=   0.8639
  2.2834  2.2834  0.9517  0.8547  0.8547  0.5547  0.3213  0.1939  0.1814  0.1594

 Free energy of the ion-electron system (eV)
  ---------------------------------------------------
  alpha Z        PSCENC =      5797.92193983
  Ewald energy   TEWEN  =    -98294.56175558
  -Hartree energ DENC   =    -40181.80593595
  -exchange      EXHF   =         0.00000000
  -V(xc)+E(xc)   XCENC  =      6740.59318921
  PAW double counting   =    157924.08824048  -159750.96413088
  entropy T*S    EENTRO =         0.38624058
  eigenvalues    EBANDS =    -18617.16845884
  atomic energy  EATOM  =    144941.82602124
  Solvation  Ediel_sol  =         0.00000000
  ---------------------------------------------------
  free energy    TOTEN  =     -1439.68464992 eV

[...]
      2.41317      4.21885      3.71324        -0.000635      0.000167      0.000654
      7.28980      4.21885      3.71324        -0.001426      0.000013      0.000892
      2.41317     12.65655      3.71324        -0.000977     -0.000021      0.000840
      7.28980     12.65655      3.71324        -0.000997      0.000009      0.000908
      0.79041      4.21885      8.71504         0.001029      0.002647      0.004080
      5.66705      4.21885      8.71504        -0.001518      0.000295      0.000194
      0.79041     12.65655      8.71504        -0.000998      0.000025      0.000824
      5.66705     12.65655      8.71504        -0.000972     -0.000009      0.000939
     -0.02515      0.00000      3.71324        -0.001088     -0.000031      0.000883
      4.85148      0.00000      3.71324        -0.000922     -0.000057      0.000788
     -0.02515      8.43770      3.71324        -0.000886     -0.000066      0.000749
      4.85148      8.43770      3.71324        -0.001309     -0.000274      0.000654
     -1.64790      0.00000      8.71504        -0.001099     -0.000276      0.000479
      3.22873      0.00000      8.71504        -0.001085      0.000010      0.000862
     -1.64790      8.43770      8.71504        -0.000928     -0.000142      0.001181
      3.22873      8.43770      8.71504        -0.000973     -0.000030      0.000924
      3.22246      2.81586      1.43409         0.000927      0.002742      0.000170
      8.09910      2.81586      1.43409        -0.001489     -0.000946     -0.001889
      3.22246     11.25356      1.43409        -0.001063     -0.000881     -0.001992
      8.09910     11.25356      1.43409        -0.001150     -0.000836     -0.002180
      1.59971      2.81586      6.43589        -0.001006     -0.000711     -0.001931
      6.47635      2.81586      6.43589        -0.001251     -0.000461     -0.002491
      1.59971     11.25356      6.43589        -0.001141     -0.000846     -0.002164
      6.47635     11.25356      6.43589        -0.001090     -0.000906     -0.002226
      0.78415      7.03471      1.43409        -0.000488     -0.000851     -0.002694
      5.66078      7.03471      1.43409        -0.001705     -0.001100     -0.002353
      0.78415     15.47241      1.43409        -0.001166     -0.000990     -0.002021
      5.66078     15.47241      1.43409        -0.001078     -0.000862     -0.002070
     -0.83860      7.03471      6.43589        -0.001186     -0.000917     -0.001962
      4.03803      7.03471      6.43589        -0.001236     -0.000657     -0.002093
     -0.83860     15.47241      6.43589        -0.001097     -0.000890     -0.002136
      4.03803     15.47241      6.43589        -0.001192     -0.000930     -0.002256
      3.22246      5.62184      1.43409         0.000547      0.004063     -0.006648
      8.09910      5.62184      1.43409        -0.001360      0.001095     -0.002030
      3.22246     14.05955      1.43409        -0.001194      0.000653     -0.002107
      8.09910     14.05955      1.43409        -0.001172      0.000719     -0.002079
      1.59971      5.62184      6.43589        -0.001273      0.000767     -0.001936
      6.47635      5.62184      6.43589        -0.001226      0.001008     -0.001889
      1.59971     14.05955      6.43589        -0.001195      0.000719     -0.002079
      6.47635     14.05955      6.43589        -0.001194      0.000623     -0.002246
      0.78415      1.40299      1.43409        -0.001859      0.000062     -0.000817
      5.66078      1.40299      1.43409        -0.000855      0.000716     -0.001849
      0.78415      9.84070      1.43409        -0.001090      0.000688     -0.002075
      5.66078      9.84070      1.43409        -0.001257      0.000748     -0.002095
     -0.83860      1.40299      6.43589        -0.000859      0.000921     -0.002511
      4.03803      1.40299      6.43589        -0.001129      0.000892     -0.002248
     -0.83860      9.84070      6.43589        -0.001138      0.000732     -0.002212
      4.03803      9.84070      6.43589        -0.001155      0.000713     -0.002158
      3.22001      0.00000      1.14904        -0.002085     -0.000111     -0.000038
      8.09665      0.00000      1.14904        -0.002192      0.000020     -0.000224
      3.22001      8.43770      1.14904        -0.002244     -0.000263     -0.000565
      8.09665      8.43770      1.14904        -0.002134     -0.000071     -0.000327
      1.59726      0.00000      6.15084        -0.002117      0.000000     -0.000340
      6.47390      0.00000      6.15084        -0.002065     -0.000103     -0.000582
      1.59726      8.43770      6.15084        -0.002033      0.000005     -0.000385
      6.47390      8.43770      6.15084        -0.002224     -0.000100     -0.000289
      0.78170      4.21885      1.14904         0.003450      0.001242     -0.000202
      5.65833      4.21885      1.14904        -0.002667      0.000265     -0.001167
      0.78170     12.65655      1.14904        -0.002100     -0.000017     -0.000320
      5.65833     12.65655      1.14904        -0.002182      0.000034     -0.000320
     -0.84105      4.21885      6.15084        -0.002225     -0.000000     -0.000273
      4.03558      4.21885      6.15084        -0.002137      0.000046     -0.000304
     -0.84105     12.65655      6.15084        -0.002045      0.000068     -0.000361
      4.03558     12.65655      6.15084        -0.002174     -0.000025     -0.000403
      3.92504      7.21705      2.52237         0.001590      0.004854      0.000813
      8.80168      7.21705      2.52237        -0.000176      0.000586     -0.001050
      3.92504     15.65475      2.52237         0.000048      0.000303     -0.001112
      8.80168     15.65475      2.52237         0.000030      0.000930     -0.001220
      2.30229      7.21705      7.52417         0.001002     -0.000466     -0.001662
      7.17892      7.21705      7.52417         0.000519      0.001363     -0.001760
      2.30229     15.65475      7.52417         0.001087      0.000002     -0.001140
      7.17892     15.65475      7.52417         0.000352     -0.000490     -0.001077
      1.48672      2.99820      2.52237         0.002065      0.001908     -0.008144
      6.36336      2.99820      2.52237        -0.000138      0.000888     -0.001301
      1.48672     11.43590      2.52237        -0.000149      0.000524     -0.001247
      6.36336     11.43590      2.52237         0.000300      0.000659     -0.001258
     -0.13603      2.99820      7.52417        -0.004344     -0.001224      0.002554
      4.74061      2.99820      7.52417         0.000525     -0.000402     -0.000937
     -0.13603     11.43590      7.52417        -0.000018     -0.000323     -0.001184
      4.74061     11.43590      7.52417         0.000908      0.000050     -0.001187
      3.92504      1.22065      2.52237        -0.000456      0.001355     -0.001999
      8.80168      1.22065      2.52237         0.000875     -0.000839     -0.001600
      3.92504      9.65836      2.52237        -0.000044     -0.001649     -0.001448
      8.80168      9.65836      2.52237        -0.000333     -0.000476     -0.001231
      2.30229      1.22065      7.52417         0.000661      0.000199     -0.001018
      7.17892      1.22065      7.52417         0.001345      0.002065     -0.000078
      2.30229      9.65836      7.52417         0.000512      0.000661     -0.001192
      7.17892      9.65836      7.52417         0.000426     -0.000209     -0.001185
      1.48672      5.43951      2.52237        -0.004842     -0.001517      0.001948
      6.36336      5.43951      2.52237         0.000577     -0.000847     -0.000840
      1.48672     13.87721      2.52237         0.000123     -0.000337     -0.001254
      6.36336     13.87721      2.52237         0.000472     -0.000559     -0.001225
     -0.13603      5.43951      7.52417         0.001337      0.000848     -0.008337
      4.74061      5.43951      7.52417         0.000692     -0.000302     -0.001103
     -0.13603     13.87721      7.52417         0.000403      0.000288     -0.001176
      4.74061     13.87721      7.52417         0.000917      0.000218     -0.001190
      1.81811      0.00000      2.53122        -0.001860      0.000444      0.000868
      6.69474      0.00000      2.53122        -0.001435     -0.000226      0.001071
      1.81811      8.43770      2.53122        -0.001144      0.000538      0.001361
      6.69474      8.43770      2.53122        -0.001332      0.000666      0.001207
      0.19536      0.00000      7.53301        -0.002767      0.000479      0.001602
      5.07199      0.00000      7.53301        -0.002720      0.000042      0.001366
      0.19536      8.43770      7.53301        -0.002973      0.000602      0.000787
      5.07199      8.43770      7.53301        -0.002102      0.000246      0.001165
     -0.62021      4.21885      2.53122        -0.001022      0.000625      0.000761
      4.25643      4.21885      2.53122         0.000135     -0.005849      0.004209
     -0.62021     12.65655      2.53122        -0.001756     -0.000231      0.001141
      4.25643     12.65655      2.53122        -0.001713     -0.000077      0.001122
     -2.24296      4.21885      7.53301        -0.000889     -0.005275      0.004659
      2.63367      4.21885      7.53301        -0.001586     -0.000160      0.000730
     -2.24296     12.65655      7.53301        -0.002426     -0.000316      0.001250
      2.63367     12.65655      7.53301        -0.002495     -0.000005      0.001264
 -----------------------------------------------------------------------------------
    total drift:                                0.049333     -0.000755      0.070045


--------------------------------------------------------------------------------------------------------



  FREE ENERGIE OF THE ION-ELECTRON SYSTEM (eV)
  ---------------------------------------------------
  free  energy   TOTEN  =     -1439.64977820 eV

  energy  without entropy=    -1440.03911600  energy(sigma->0) =    -1439.77955746
 


--------------------------------------------------------------------------------------------------------


    POTLOK:  cpu time    1.4280: real time    1.6786


--------------------------------------------------------------------------------------------------------


     LOOP+:  cpu time37057.8960: real time36829.1580
    4ORBIT:  cpu time    0.0000: real time    0.0000

volume of typ            1:    22.7 %

volume of typ            2:     9.5 %

volume of typ            3:    29.4 %
 
total charge     
 
# of ion       s       p       d       tot
------------------------------------------
    1        2.083   0.285   0.115   2.483
    2        2.083   0.285   0.115   2.484
    3        2.083   0.285   0.115   2.484
    4        2.083   0.285   0.115   2.484
    5        2.083   0.285   0.115   2.484
    6        2.083   0.285   0.115   2.484
    7        2.083   0.285   0.115   2.484
    8        2.083   0.285   0.115   2.484
    9        2.083   0.285   0.115   2.484
   10        2.083   0.285   0.115   2.484
   11        2.083   0.285   0.115   2.484
   12        2.083   0.285   0.115   2.484
   13        2.083   0.285   0.115   2.484
   14        2.083   0.285   0.115   2.484
   15        2.083   0.285   0.115   2.484
   16        2.083   0.285   0.115   2.484
   17        2.082   0.277   0.113   2.472
   18        2.082   0.276   0.113   2.471
   19        2.082   0.276   0.113   2.471
   20        2.082   0.276   0.113   2.471
   21        2.082   0.276   0.113   2.471
   22        2.082   0.276   0.113   2.471
   23        2.082   0.276   0.113   2.471
   24        2.082   0.276   0.113   2.471
   25        2.082   0.276   0.113   2.471
   26        2.082   0.276   0.113   2.471
   27        2.082   0.276   0.113   2.471
   28        2.082   0.276   0.113   2.471
   29        2.082   0.276   0.113   2.471
   30        2.082   0.276   0.113   2.471
   31        2.082   0.276   0.113   2.471
   32        2.082   0.276   0.113   2.471
   33        2.082   0.276   0.113   2.471
   34        2.082   0.276   0.113   2.471
   35        2.082   0.276   0.113   2.471
   36        2.082   0.276   0.113   2.471
   37        2.082   0.276   0.113   2.471
   38        2.082   0.276   0.113   2.471
   39        2.082   0.276   0.113   2.471
   40        2.082   0.276   0.113   2.471
   41        2.082   0.276   0.113   2.472
   42        2.082   0.276   0.113   2.471
   43        2.082   0.276   0.113   2.471
   44        2.082   0.276   0.113   2.471
   45        2.082   0.276   0.113   2.471
   46        2.082   0.276   0.113   2.471
   47        2.082   0.276   0.113   2.471
   48        2.082   0.276   0.113   2.471
   49        1.254   2.854   0.005   4.114
   50        1.254   2.854   0.005   4.114
   51        1.254   2.854   0.005   4.114
   52        1.254   2.854   0.005   4.114
   53        1.254   2.854   0.005   4.114
   54        1.254   2.854   0.005   4.114
   55        1.254   2.854   0.005   4.114
   56        1.254   2.854   0.005   4.114
   57        1.254   2.854   0.005   4.114
   58        1.254   2.854   0.005   4.114
   59        1.254   2.854   0.005   4.114
   60        1.254   2.854   0.005   4.114
   61        1.254   2.854   0.005   4.114
   62        1.254   2.854   0.005   4.114
   63        1.254   2.854   0.005   4.114
   64        1.254   2.854   0.005   4.114
   65        1.254   2.854   0.005   4.114
   66        1.254   2.854   0.005   4.114
   67        1.254   2.854   0.005   4.114
   68        1.254   2.854   0.005   4.114
   69        1.254   2.854   0.005   4.114
   70        1.254   2.854   0.005   4.114
   71        1.254   2.854   0.005   4.114
   72        1.254   2.854   0.005   4.114
   73        1.254   2.854   0.005   4.114
   74        1.254   2.854   0.005   4.114
   75        1.254   2.854   0.005   4.114
   76        1.254   2.854   0.005   4.114
   77        1.254   2.854   0.005   4.114
   78        1.254   2.854   0.005   4.114
   79        1.254   2.854   0.005   4.114
   80        1.254   2.854   0.005   4.114
   81        1.254   2.854   0.005   4.114
   82        1.254   2.854   0.005   4.114
   83        1.254   2.854   0.005   4.114
   84        1.254   2.854   0.005   4.114
   85        1.254   2.855   0.005   4.114
   86        1.254   2.854   0.005   4.114
   87        1.254   2.854   0.005   4.114
   88        1.254   2.854   0.005   4.114
   89        1.254   2.854   0.005   4.114
   90        1.254   2.854   0.005   4.114
   91        1.254   2.854   0.005   4.114
   92        1.254   2.854   0.005   4.114
   93        1.254   2.854   0.005   4.114
   94        1.254   2.854   0.005   4.114
   95        1.254   2.854   0.005   4.114
   96        1.254   2.854   0.005   4.114
   97        1.249   2.853   0.003   4.105
   98        1.249   2.853   0.003   4.105
   99        1.249   2.853   0.003   4.105
  100        1.249   2.853   0.003   4.105
  101        1.249   2.853   0.003   4.105
  102        1.249   2.853   0.003   4.105
  103        1.249   2.853   0.003   4.105
  104        1.249   2.853   0.003   4.105
  105        1.249   2.853   0.003   4.105
  106        1.249   2.853   0.003   4.105
  107        1.249   2.853   0.003   4.105
  108        1.249   2.853   0.003   4.105
  109        1.249   2.853   0.003   4.105
  110        1.249   2.853   0.003   4.105
  111        1.249   2.853   0.003   4.105
  112        1.249   2.853   0.003   4.105
  113        1.248   2.853   0.003   4.105
  114        1.249   2.853   0.003   4.105
  115        1.249   2.853   0.003   4.105
  116        1.249   2.853   0.003   4.105
  117        1.249   2.853   0.003   4.105
  118        1.249   2.853   0.003   4.105
  119        1.249   2.853   0.003   4.105
  120        1.249   2.853   0.003   4.105
  121        1.249   2.853   0.003   4.105
  122        1.249   2.853   0.003   4.105
  123        1.249   2.853   0.003   4.105
  124        1.249   2.853   0.003   4.105
  125        1.249   2.853   0.003   4.105
  126        1.249   2.853   0.003   4.105
  127        1.249   2.853   0.003   4.105
  128        1.249   2.853   0.003   4.105
  129        1.255   2.859   0.008   4.122
  130        1.255   2.859   0.008   4.122
  131        1.255   2.859   0.008   4.122
  132        1.255   2.859   0.008   4.122
  133        1.255   2.859   0.008   4.122
  134        1.255   2.859   0.008   4.122
  135        1.255   2.859   0.008   4.122
  136        1.255   2.859   0.008   4.122
  137        1.255   2.859   0.008   4.122
  138        1.255   2.859   0.008   4.122
  139        1.255   2.859   0.008   4.122
  140        1.255   2.859   0.008   4.122
  141        1.255   2.859   0.008   4.122
  142        1.255   2.859   0.008   4.122
  143        1.255   2.859   0.008   4.122
  144        1.255   2.859   0.008   4.122
  145        2.218   6.345   3.137  11.701
  146        2.219   6.345   3.137  11.700
  147        2.219   6.345   3.137  11.701
  148        2.219   6.345   3.137  11.701
  149        2.219   6.345   3.137  11.700
  150        2.219   6.345   3.137  11.700
  151        2.219   6.345   3.137  11.700
  152        2.219   6.345   3.137  11.700
  153        2.219   6.345   3.137  11.700
  154        2.219   6.345   3.137  11.701
  155        2.219   6.345   3.137  11.701
  156        2.219   6.345   3.137  11.701
  157        2.219   6.345   3.137  11.701
  158        2.219   6.345   3.137  11.701
  159        2.219   6.345   3.137  11.700
  160        2.219   6.345   3.137  11.700
  161        2.219   6.345   3.137  11.701
  162        2.219   6.345   3.137  11.701
  163        2.219   6.345   3.138  11.701
  164        2.219   6.345   3.137  11.701
  165        2.219   6.345   3.137  11.700
  166        2.219   6.345   3.137  11.700
  167        2.219   6.345   3.137  11.700
  168        2.219   6.345   3.137  11.701
  169        2.219   6.345   3.137  11.700
  170        2.219   6.345   3.137  11.701
  171        2.219   6.345   3.137  11.700
  172        2.219   6.345   3.137  11.700
  173        2.219   6.345   3.137  11.701
  174        2.219   6.345   3.137  11.700
  175        2.219   6.345   3.137  11.700
  176        2.219   6.345   3.137  11.700
  177        2.217   6.341   3.136  11.694
  178        2.217   6.341   3.136  11.694
  179        2.217   6.341   3.136  11.694
  180        2.217   6.341   3.136  11.694
  181        2.217   6.341   3.136  11.694
  182        2.217   6.341   3.136  11.694
  183        2.217   6.341   3.136  11.694
  184        2.217   6.341   3.136  11.694
  185        2.217   6.341   3.136  11.694
  186        2.217   6.341   3.136  11.694
  187        2.217   6.341   3.136  11.694
  188        2.217   6.341   3.136  11.694
  189        2.217   6.341   3.136  11.694
  190        2.217   6.341   3.136  11.694
  191        2.217   6.341   3.136  11.694
  192        2.217   6.341   3.136  11.694
--------------------------------------------------
tot         326.67  591.95  156.51 1075.13
 

 total amount of memory used by VASP MPI-rank0   612099. kBytes
=======================================================================

   base      :      30000. kBytes
   nonlr-proj:     100322. kBytes
   fftplans  :      44763. kBytes
   grid      :      62039. kBytes
   one-center:       2985. kBytes
   wavefun   :     371990. kBytes
 
  
  
 General timing and accounting informations for this job:
 ========================================================
  
                  Total CPU time used (sec):    37606.848
                            User time (sec):    35922.048
                          System time (sec):     1684.800
                         Elapsed time (sec):    37612.976
  
                   Maximum memory used (kb):     1023096.
                   Average memory used (kb):           0.
  
                          Minor page faults:      1844104
                          Major page faults:            1
                 Voluntary context switches:        26222
