natom:  192
displacements:
- atom:    1
  direction:
    [   1.0000000000000000,  1.0000000000000000,  0.0000000000000000 ]
  displacement:
    [   0.0050039430730388,  0.0086579763063771,  0.0000000000000000 ]
- atom:    1
  direction:
    [  -1.0000000000000000, -1.0000000000000000,  0.0000000000000000 ]
  displacement:
    [  -0.0050039430730388, -0.0086579763063771,  0.0000000000000000 ]
- atom:    1
  direction:
    [   0.0000000000000000,  0.0000000000000000,  1.0000000000000000 ]
  displacement:
    [  -0.0030859875169666,  0.0000000000000000,  0.0095119230992017 ]
- atom:    1
  direction:
    [   0.0000000000000000,  0.0000000000000000, -1.0000000000000000 ]
  displacement:
    [   0.0030859875169666,  0.0000000000000000, -0.0095119230992017 ]
- atom:   17
  direction:
    [   1.0000000000000000,  0.0000000000000000,  0.0000000000000000 ]
  displacement:
    [   0.0100000000000000,  0.0000000000000000,  0.0000000000000000 ]
- atom:   17
  direction:
    [  -1.0000000000000000,  0.0000000000000000,  0.0000000000000000 ]
  displacement:
    [  -0.0100000000000000,  0.0000000000000000,  0.0000000000000000 ]
- atom:   17
  direction:
    [   0.0000000000000000,  1.0000000000000000,  0.0000000000000000 ]
  displacement:
    [   0.0000000000000000,  0.0100000000000000,  0.0000000000000000 ]
- atom:   17
  direction:
    [   0.0000000000000000, -1.0000000000000000,  0.0000000000000000 ]
  displacement:
    [   0.0000000000000000, -0.0100000000000000,  0.0000000000000000 ]
- atom:   17
  direction:
    [   0.0000000000000000,  0.0000000000000000,  1.0000000000000000 ]
  displacement:
    [  -0.0030859875169666,  0.0000000000000000,  0.0095119230992017 ]
- atom:   17
  direction:
    [   0.0000000000000000,  0.0000000000000000, -1.0000000000000000 ]
  displacement:
    [   0.0030859875169666,  0.0000000000000000, -0.0095119230992017 ]
- atom:   49
  direction:
    [   1.0000000000000000,  0.0000000000000000,  0.0000000000000000 ]
  displacement:
    [   0.0100000000000000,  0.0000000000000000,  0.0000000000000000 ]
- atom:   49
  direction:
    [  -1.0000000000000000,  0.0000000000000000,  0.0000000000000000 ]
  displacement:
    [  -0.0100000000000000,  0.0000000000000000,  0.0000000000000000 ]
- atom:   49
  direction:
    [   0.0000000000000000,  1.0000000000000000,  0.0000000000000000 ]
  displacement:
    [   0.0000000000000000,  0.0100000000000000,  0.0000000000000000 ]
- atom:   49
  direction:
    [   0.0000000000000000, -1.0000000000000000,  0.0000000000000000 ]
  displacement:
    [   0.0000000000000000, -0.0100000000000000,  0.0000000000000000 ]
- atom:   49
  direction:
    [   0.0000000000000000,  0.0000000000000000,  1.0000000000000000 ]
  displacement:
    [  -0.0030859875169666,  0.0000000000000000,  0.0095119230992017 ]
- atom:   49
  direction:
    [   0.0000000000000000,  0.0000000000000000, -1.0000000000000000 ]
  displacement:
    [   0.0030859875169666,  0.0000000000000000, -0.0095119230992017 ]
- atom:   81
  direction:
    [   1.0000000000000000,  1.0000000000000000,  0.0000000000000000 ]
  displacement:
    [   0.0050039430730388,  0.0086579763063771,  0.0000000000000000 ]
- atom:   81
  direction:
    [  -1.0000000000000000, -1.0000000000000000,  0.0000000000000000 ]
  displacement:
    [  -0.0050039430730388, -0.0086579763063771,  0.0000000000000000 ]
- atom:   81
  direction:
    [   0.0000000000000000,  0.0000000000000000,  1.0000000000000000 ]
  displacement:
    [  -0.0030859875169666,  0.0000000000000000,  0.0095119230992017 ]
- atom:   81
  direction:
    [   0.0000000000000000,  0.0000000000000000, -1.0000000000000000 ]
  displacement:
    [   0.0030859875169666,  0.0000000000000000, -0.0095119230992017 ]
- atom:   97
  direction:
    [   1.0000000000000000,  0.0000000000000000,  0.0000000000000000 ]
  displacement:
    [   0.0100000000000000,  0.0000000000000000,  0.0000000000000000 ]
- atom:   97
  direction:
    [  -1.0000000000000000,  0.0000000000000000,  0.0000000000000000 ]
  displacement:
    [  -0.0100000000000000,  0.0000000000000000,  0.0000000000000000 ]
- atom:   97
  direction:
    [   0.0000000000000000,  1.0000000000000000,  0.0000000000000000 ]
  displacement:
    [   0.0000000000000000,  0.0100000000000000,  0.0000000000000000 ]
- atom:   97
  direction:
    [   0.0000000000000000, -1.0000000000000000,  0.0000000000000000 ]
  displacement:
    [   0.0000000000000000, -0.0100000000000000,  0.0000000000000000 ]
- atom:   97
  direction:
    [   0.0000000000000000,  0.0000000000000000,  1.0000000000000000 ]
  displacement:
    [  -0.0030859875169666,  0.0000000000000000,  0.0095119230992017 ]
- atom:   97
  direction:
    [   0.0000000000000000,  0.0000000000000000, -1.0000000000000000 ]
  displacement:
    [   0.0030859875169666,  0.0000000000000000, -0.0095119230992017 ]
- atom:  129
  direction:
    [   1.0000000000000000,  1.0000000000000000,  0.0000000000000000 ]
  displacement:
    [   0.0050039430730388,  0.0086579763063771,  0.0000000000000000 ]
- atom:  129
  direction:
    [  -1.0000000000000000, -1.0000000000000000,  0.0000000000000000 ]
  displacement:
    [  -0.0050039430730388, -0.0086579763063771,  0.0000000000000000 ]
- atom:  129
  direction:
    [   0.0000000000000000,  0.0000000000000000,  1.0000000000000000 ]
  displacement:
    [  -0.0030859875169666,  0.0000000000000000,  0.0095119230992017 ]
- atom:  129
  direction:
    [   0.0000000000000000,  0.0000000000000000, -1.0000000000000000 ]
  displacement:
    [   0.0030859875169666,  0.0000000000000000, -0.0095119230992017 ]
- atom:  145
  direction:
    [   1.0000000000000000,  0.0000000000000000,  0.0000000000000000 ]
  displacement:
    [   0.0100000000000000,  0.0000000000000000,  0.0000000000000000 ]
- atom:  145
  direction:
    [  -1.0000000000000000,  0.0000000000000000,  0.0000000000000000 ]
  displacement:
    [  -0.0100000000000000,  0.0000000000000000,  0.0000000000000000 ]
- atom:  145
  direction:
    [   0.0000000000000000,  1.0000000000000000,  0.0000000000000000 ]
  displacement:
    [   0.0000000000000000,  0.0100000000000000,  0.0000000000000000 ]
- atom:  145
  direction:
    [   0.0000000000000000, -1.0000000000000000,  0.0000000000000000 ]
  displacement:
    [   0.0000000000000000, -0.0100000000000000,  0.0000000000000000 ]
- atom:  145
  direction:
    [   0.0000000000000000,  0.0000000000000000,  1.0000000000000000 ]
  displacement:
    [  -0.0030859875169666,  0.0000000000000000,  0.0095119230992017 ]
- atom:  145
  direction:
    [   0.0000000000000000,  0.0000000000000000, -1.0000000000000000 ]
  displacement:
    [   0.0030859875169666,  0.0000000000000000, -0.0095119230992017 ]
- atom:  177
  direction:
    [   1.0000000000000000,  1.0000000000000000,  0.0000000000000000 ]
  displacement:
    [   0.0050039430730388,  0.0086579763063771,  0.0000000000000000 ]
- atom:  177
  direction:
    [  -1.0000000000000000, -1.0000000000000000,  0.0000000000000000 ]
  displacement:
    [  -0.0050039430730388, -0.0086579763063771,  0.0000000000000000 ]
- atom:  177
  direction:
    [   0.0000000000000000,  0.0000000000000000,  1.0000000000000000 ]
  displacement:
    [  -0.0030859875169666,  0.0000000000000000,  0.0095119230992017 ]
- atom:  177
  direction:
    [   0.0000000000000000,  0.0000000000000000, -1.0000000000000000 ]
  displacement:
    [   0.0030859875169666,  0.0000000000000000, -0.0095119230992017 ]
lattice:
- [     9.753268520000001,     0.000000000000000,     0.000000000000000 ] # a
- [     0.000000000000000,    16.875405359999998,     0.000000000000000 ] # b
- [    -3.245503560000000,     0.000000000000000,    10.003598560000000 ] # c
points:
- symbol: Li # 1
  coordinates: [  0.257088395000000,  0.250000000000000,  0.011176680000000 ]
  mass: 6.941000
- symbol: Li # 2
  coordinates: [  0.757088395000000,  0.250000000000000,  0.011176680000000 ]
  mass: 6.941000
- symbol: Li # 3
  coordinates: [  0.257088395000000,  0.750000000000000,  0.011176680000000 ]
  mass: 6.941000
- symbol: Li # 4
  coordinates: [  0.757088395000000,  0.750000000000000,  0.011176680000000 ]
  mass: 6.941000
- symbol: Li # 5
  coordinates: [  0.257088395000000,  0.250000000000000,  0.511176680000000 ]
  mass: 6.941000
- symbol: Li # 6
  coordinates: [  0.757088395000000,  0.250000000000000,  0.511176680000000 ]
  mass: 6.941000
- symbol: Li # 7
  coordinates: [  0.257088395000000,  0.750000000000000,  0.511176680000000 ]
  mass: 6.941000
- symbol: Li # 8
  coordinates: [  0.757088395000000,  0.750000000000000,  0.511176680000000 ]
  mass: 6.941000
- symbol: Li # 9
  coordinates: [  0.007088395000000,  0.000000000000000,  0.011176680000000 ]
  mass: 6.941000
- symbol: Li # 10
  coordinates: [  0.507088395000000,  0.000000000000000,  0.011176680000000 ]
  mass: 6.941000
- symbol: Li # 11
  coordinates: [  0.007088395000000,  0.500000000000000,  0.011176680000000 ]
  mass: 6.941000
- symbol: Li # 12
  coordinates: [  0.507088395000000,  0.500000000000000,  0.011176680000000 ]
  mass: 6.941000
- symbol: Li # 13
  coordinates: [  0.007088395000000,  0.000000000000000,  0.511176680000000 ]
  mass: 6.941000
- symbol: Li # 14
  coordinates: [  0.507088395000000,  0.000000000000000,  0.511176680000000 ]
  mass: 6.941000
- symbol: Li # 15
  coordinates: [  0.007088395000000,  0.500000000000000,  0.511176680000000 ]
  mass: 6.941000
- symbol: Li # 16
  coordinates: [  0.507088395000000,  0.500000000000000,  0.511176680000000 ]
  mass: 6.941000
- symbol: Li # 17
  coordinates: [  0.496697720000000,  0.334774925000000,  0.000959345000000 ]
  mass: 6.941000
- symbol: Li # 18
  coordinates: [  0.996697720000000,  0.334774925000000,  0.000959345000000 ]
  mass: 6.941000
- symbol: Li # 19
  coordinates: [  0.496697720000000,  0.834774925000000,  0.000959345000000 ]
  mass: 6.941000
- symbol: Li # 20
  coordinates: [  0.996697720000000,  0.834774925000000,  0.000959345000000 ]
  mass: 6.941000
- symbol: Li # 21
  coordinates: [  0.496697720000000,  0.334774925000000,  0.500959345000000 ]
  mass: 6.941000
- symbol: Li # 22
  coordinates: [  0.996697720000000,  0.334774925000000,  0.500959345000000 ]
  mass: 6.941000
- symbol: Li # 23
  coordinates: [  0.496697720000000,  0.834774925000000,  0.500959345000000 ]
  mass: 6.941000
- symbol: Li # 24
  coordinates: [  0.996697720000000,  0.834774925000000,  0.500959345000000 ]
  mass: 6.941000
- symbol: Li # 25
  coordinates: [  0.246697720000000,  0.084774925000000,  0.000959345000000 ]
  mass: 6.941000
- symbol: Li # 26
  coordinates: [  0.746697720000000,  0.084774925000000,  0.000959345000000 ]
  mass: 6.941000
- symbol: Li # 27
  coordinates: [  0.246697720000000,  0.584774925000000,  0.000959345000000 ]
  mass: 6.941000
- symbol: Li # 28
  coordinates: [  0.746697720000000,  0.584774925000000,  0.000959345000000 ]
  mass: 6.941000
- symbol: Li # 29
  coordinates: [  0.246697720000000,  0.084774925000000,  0.500959345000000 ]
  mass: 6.941000
- symbol: Li # 30
  coordinates: [  0.746697720000000,  0.084774925000000,  0.500959345000000 ]
  mass: 6.941000
- symbol: Li # 31
  coordinates: [  0.246697720000000,  0.584774925000000,  0.500959345000000 ]
  mass: 6.941000
- symbol: Li # 32
  coordinates: [  0.746697720000000,  0.584774925000000,  0.500959345000000 ]
  mass: 6.941000
- symbol: Li # 33
  coordinates: [  0.496697720000000,  0.165225075000000,  0.000959345000000 ]
  mass: 6.941000
- symbol: Li # 34
  coordinates: [  0.996697720000000,  0.165225075000000,  0.000959345000000 ]
  mass: 6.941000
- symbol: Li # 35
  coordinates: [  0.496697720000000,  0.665225075000000,  0.000959345000000 ]
  mass: 6.941000
- symbol: Li # 36
  coordinates: [  0.996697720000000,  0.665225075000000,  0.000959345000000 ]
  mass: 6.941000
- symbol: Li # 37
  coordinates: [  0.496697720000000,  0.165225075000000,  0.500959345000000 ]
  mass: 6.941000
- symbol: Li # 38
  coordinates: [  0.996697720000000,  0.165225075000000,  0.500959345000000 ]
  mass: 6.941000
- symbol: Li # 39
  coordinates: [  0.496697720000000,  0.665225075000000,  0.500959345000000 ]
  mass: 6.941000
- symbol: Li # 40
  coordinates: [  0.996697720000000,  0.665225075000000,  0.500959345000000 ]
  mass: 6.941000
- symbol: Li # 41
  coordinates: [  0.246697720000000,  0.415225075000000,  0.000959345000000 ]
  mass: 6.941000
- symbol: Li # 42
  coordinates: [  0.746697720000000,  0.415225075000000,  0.000959345000000 ]
  mass: 6.941000
- symbol: Li # 43
  coordinates: [  0.246697720000000,  0.915225075000000,  0.000959345000000 ]
  mass: 6.941000
- symbol: Li # 44
  coordinates: [  0.746697720000000,  0.915225075000000,  0.000959345000000 ]
  mass: 6.941000
- symbol: Li # 45
  coordinates: [  0.246697720000000,  0.415225075000000,  0.500959345000000 ]
  mass: 6.941000
- symbol: Li # 46
  coordinates: [  0.746697720000000,  0.415225075000000,  0.500959345000000 ]
  mass: 6.941000
- symbol: Li # 47
  coordinates: [  0.246697720000000,  0.915225075000000,  0.500959345000000 ]
  mass: 6.941000
- symbol: Li # 48
  coordinates: [  0.746697720000000,  0.915225075000000,  0.500959345000000 ]
  mass: 6.941000
- symbol: O  # 49
  coordinates: [  0.370480235000000,  0.084202310000000,  0.371175075000000 ]
  mass: 15.999400
- symbol: O  # 50
  coordinates: [  0.870480235000000,  0.084202310000000,  0.371175075000000 ]
  mass: 15.999400
- symbol: O  # 51
  coordinates: [  0.370480235000000,  0.584202310000000,  0.371175075000000 ]
  mass: 15.999400
- symbol: O  # 52
  coordinates: [  0.870480235000000,  0.584202310000000,  0.371175075000000 ]
  mass: 15.999400
- symbol: O  # 53
  coordinates: [  0.370480235000000,  0.084202310000000,  0.871175075000000 ]
  mass: 15.999400
- symbol: O  # 54
  coordinates: [  0.870480235000000,  0.084202310000000,  0.871175075000000 ]
  mass: 15.999400
- symbol: O  # 55
  coordinates: [  0.370480235000000,  0.584202310000000,  0.871175075000000 ]
  mass: 15.999400
- symbol: O  # 56
  coordinates: [  0.870480235000000,  0.584202310000000,  0.871175075000000 ]
  mass: 15.999400
- symbol: O  # 57
  coordinates: [  0.120480235000000,  0.334202310000000,  0.371175075000000 ]
  mass: 15.999400
- symbol: O  # 58
  coordinates: [  0.620480235000000,  0.334202310000000,  0.371175075000000 ]
  mass: 15.999400
- symbol: O  # 59
  coordinates: [  0.120480235000000,  0.834202310000000,  0.371175075000000 ]
  mass: 15.999400
- symbol: O  # 60
  coordinates: [  0.620480235000000,  0.834202310000000,  0.371175075000000 ]
  mass: 15.999400
- symbol: O  # 61
  coordinates: [  0.120480235000000,  0.334202310000000,  0.871175075000000 ]
  mass: 15.999400
- symbol: O  # 62
  coordinates: [  0.620480235000000,  0.334202310000000,  0.871175075000000 ]
  mass: 15.999400
- symbol: O  # 63
  coordinates: [  0.120480235000000,  0.834202310000000,  0.871175075000000 ]
  mass: 15.999400
- symbol: O  # 64
  coordinates: [  0.620480235000000,  0.834202310000000,  0.871175075000000 ]
  mass: 15.999400
- symbol: O  # 65
  coordinates: [  0.370480235000000,  0.415797690000000,  0.371175075000000 ]
  mass: 15.999400
- symbol: O  # 66
  coordinates: [  0.870480235000000,  0.415797690000000,  0.371175075000000 ]
  mass: 15.999400
- symbol: O  # 67
  coordinates: [  0.370480235000000,  0.915797690000000,  0.371175075000000 ]
  mass: 15.999400
- symbol: O  # 68
  coordinates: [  0.870480235000000,  0.915797690000000,  0.371175075000000 ]
  mass: 15.999400
- symbol: O  # 69
  coordinates: [  0.370480235000000,  0.415797690000000,  0.871175075000000 ]
  mass: 15.999400
- symbol: O  # 70
  coordinates: [  0.870480235000000,  0.415797690000000,  0.871175075000000 ]
  mass: 15.999400
- symbol: O  # 71
  coordinates: [  0.370480235000000,  0.915797690000000,  0.871175075000000 ]
  mass: 15.999400
- symbol: O  # 72
  coordinates: [  0.870480235000000,  0.915797690000000,  0.871175075000000 ]
  mass: 15.999400
- symbol: O  # 73
  coordinates: [  0.120480235000000,  0.165797690000000,  0.371175075000000 ]
  mass: 15.999400
- symbol: O  # 74
  coordinates: [  0.620480235000000,  0.165797690000000,  0.371175075000000 ]
  mass: 15.999400
- symbol: O  # 75
  coordinates: [  0.120480235000000,  0.665797690000000,  0.371175075000000 ]
  mass: 15.999400
- symbol: O  # 76
  coordinates: [  0.620480235000000,  0.665797690000000,  0.371175075000000 ]
  mass: 15.999400
- symbol: O  # 77
  coordinates: [  0.120480235000000,  0.165797690000000,  0.871175075000000 ]
  mass: 15.999400
- symbol: O  # 78
  coordinates: [  0.620480235000000,  0.165797690000000,  0.871175075000000 ]
  mass: 15.999400
- symbol: O  # 79
  coordinates: [  0.120480235000000,  0.665797690000000,  0.871175075000000 ]
  mass: 15.999400
- symbol: O  # 80
  coordinates: [  0.620480235000000,  0.665797690000000,  0.871175075000000 ]
  mass: 15.999400
- symbol: O  # 81
  coordinates: [  0.370938630000000,  0.250000000000000,  0.371190005000000 ]
  mass: 15.999400
- symbol: O  # 82
  coordinates: [  0.870938630000000,  0.250000000000000,  0.371190005000000 ]
  mass: 15.999400
- symbol: O  # 83
  coordinates: [  0.370938630000000,  0.750000000000000,  0.371190005000000 ]
  mass: 15.999400
- symbol: O  # 84
  coordinates: [  0.870938630000000,  0.750000000000000,  0.371190005000000 ]
  mass: 15.999400
- symbol: O  # 85
  coordinates: [  0.370938630000000,  0.250000000000000,  0.871190005000000 ]
  mass: 15.999400
- symbol: O  # 86
  coordinates: [  0.870938630000000,  0.250000000000000,  0.871190005000000 ]
  mass: 15.999400
- symbol: O  # 87
  coordinates: [  0.370938630000000,  0.750000000000000,  0.871190005000000 ]
  mass: 15.999400
- symbol: O  # 88
  coordinates: [  0.870938630000000,  0.750000000000000,  0.871190005000000 ]
  mass: 15.999400
- symbol: O  # 89
  coordinates: [  0.120938630000000,  0.000000000000000,  0.371190005000000 ]
  mass: 15.999400
- symbol: O  # 90
  coordinates: [  0.620938630000000,  0.000000000000000,  0.371190005000000 ]
  mass: 15.999400
- symbol: O  # 91
  coordinates: [  0.120938630000000,  0.500000000000000,  0.371190005000000 ]
  mass: 15.999400
- symbol: O  # 92
  coordinates: [  0.620938630000000,  0.500000000000000,  0.371190005000000 ]
  mass: 15.999400
- symbol: O  # 93
  coordinates: [  0.120938630000000,  0.000000000000000,  0.871190005000000 ]
  mass: 15.999400
- symbol: O  # 94
  coordinates: [  0.620938630000000,  0.000000000000000,  0.871190005000000 ]
  mass: 15.999400
- symbol: O  # 95
  coordinates: [  0.120938630000000,  0.500000000000000,  0.871190005000000 ]
  mass: 15.999400
- symbol: O  # 96
  coordinates: [  0.620938630000000,  0.500000000000000,  0.871190005000000 ]
  mass: 15.999400
- symbol: O  # 97
  coordinates: [  0.378101970000000,  0.166861635000000,  0.143357140000000 ]
  mass: 15.999400
- symbol: O  # 98
  coordinates: [  0.878101970000000,  0.166861635000000,  0.143357140000000 ]
  mass: 15.999400
- symbol: O  # 99
  coordinates: [  0.378101970000000,  0.666861635000000,  0.143357140000000 ]
  mass: 15.999400
- symbol: O  # 100
  coordinates: [  0.878101970000000,  0.666861635000000,  0.143357140000000 ]
  mass: 15.999400
- symbol: O  # 101
  coordinates: [  0.378101970000000,  0.166861635000000,  0.643357140000000 ]
  mass: 15.999400
- symbol: O  # 102
  coordinates: [  0.878101970000000,  0.166861635000000,  0.643357140000000 ]
  mass: 15.999400
- symbol: O  # 103
  coordinates: [  0.378101970000000,  0.666861635000000,  0.643357140000000 ]
  mass: 15.999400
- symbol: O  # 104
  coordinates: [  0.878101970000000,  0.666861635000000,  0.643357140000000 ]
  mass: 15.999400
- symbol: O  # 105
  coordinates: [  0.128101970000000,  0.416861635000000,  0.143357140000000 ]
  mass: 15.999400
- symbol: O  # 106
  coordinates: [  0.628101970000000,  0.416861635000000,  0.143357140000000 ]
  mass: 15.999400
- symbol: O  # 107
  coordinates: [  0.128101970000000,  0.916861635000000,  0.143357140000000 ]
  mass: 15.999400
- symbol: O  # 108
  coordinates: [  0.628101970000000,  0.916861635000000,  0.143357140000000 ]
  mass: 15.999400
- symbol: O  # 109
  coordinates: [  0.128101970000000,  0.416861635000000,  0.643357140000000 ]
  mass: 15.999400
- symbol: O  # 110
  coordinates: [  0.628101970000000,  0.416861635000000,  0.643357140000000 ]
  mass: 15.999400
- symbol: O  # 111
  coordinates: [  0.128101970000000,  0.916861635000000,  0.643357140000000 ]
  mass: 15.999400
- symbol: O  # 112
  coordinates: [  0.628101970000000,  0.916861635000000,  0.643357140000000 ]
  mass: 15.999400
- symbol: O  # 113
  coordinates: [  0.378101970000000,  0.333138365000000,  0.143357140000000 ]
  mass: 15.999400
- symbol: O  # 114
  coordinates: [  0.878101970000000,  0.333138365000000,  0.143357140000000 ]
  mass: 15.999400
- symbol: O  # 115
  coordinates: [  0.378101970000000,  0.833138365000000,  0.143357140000000 ]
  mass: 15.999400
- symbol: O  # 116
  coordinates: [  0.878101970000000,  0.833138365000000,  0.143357140000000 ]
  mass: 15.999400
- symbol: O  # 117
  coordinates: [  0.378101970000000,  0.333138365000000,  0.643357140000000 ]
  mass: 15.999400
- symbol: O  # 118
  coordinates: [  0.878101970000000,  0.333138365000000,  0.643357140000000 ]
  mass: 15.999400
- symbol: O  # 119
  coordinates: [  0.378101970000000,  0.833138365000000,  0.643357140000000 ]
  mass: 15.999400
- symbol: O  # 120
  coordinates: [  0.878101970000000,  0.833138365000000,  0.643357140000000 ]
  mass: 15.999400
- symbol: O  # 121
  coordinates: [  0.128101970000000,  0.083138365000000,  0.143357140000000 ]
  mass: 15.999400
- symbol: O  # 122
  coordinates: [  0.628101970000000,  0.083138365000000,  0.143357140000000 ]
  mass: 15.999400
- symbol: O  # 123
  coordinates: [  0.128101970000000,  0.583138365000000,  0.143357140000000 ]
  mass: 15.999400
- symbol: O  # 124
  coordinates: [  0.628101970000000,  0.583138365000000,  0.143357140000000 ]
  mass: 15.999400
- symbol: O  # 125
  coordinates: [  0.128101970000000,  0.083138365000000,  0.643357140000000 ]
  mass: 15.999400
- symbol: O  # 126
  coordinates: [  0.628101970000000,  0.083138365000000,  0.643357140000000 ]
  mass: 15.999400
- symbol: O  # 127
  coordinates: [  0.128101970000000,  0.583138365000000,  0.643357140000000 ]
  mass: 15.999400
- symbol: O  # 128
  coordinates: [  0.628101970000000,  0.583138365000000,  0.643357140000000 ]
  mass: 15.999400
- symbol: O  # 129
  coordinates: [  0.368369140000000,  0.000000000000000,  0.114863030000000 ]
  mass: 15.999400
- symbol: O  # 130
  coordinates: [  0.868369140000000,  0.000000000000000,  0.114863030000000 ]
  mass: 15.999400
- symbol: O  # 131
  coordinates: [  0.368369140000000,  0.500000000000000,  0.114863030000000 ]
  mass: 15.999400
- symbol: O  # 132
  coordinates: [  0.868369140000000,  0.500000000000000,  0.114863030000000 ]
  mass: 15.999400
- symbol: O  # 133
  coordinates: [  0.368369140000000,  0.000000000000000,  0.614863030000000 ]
  mass: 15.999400
- symbol: O  # 134
  coordinates: [  0.868369140000000,  0.000000000000000,  0.614863030000000 ]
  mass: 15.999400
- symbol: O  # 135
  coordinates: [  0.368369140000000,  0.500000000000000,  0.614863030000000 ]
  mass: 15.999400
- symbol: O  # 136
  coordinates: [  0.868369140000000,  0.500000000000000,  0.614863030000000 ]
  mass: 15.999400
- symbol: O  # 137
  coordinates: [  0.118369140000000,  0.250000000000000,  0.114863030000000 ]
  mass: 15.999400
- symbol: O  # 138
  coordinates: [  0.618369140000000,  0.250000000000000,  0.114863030000000 ]
  mass: 15.999400
- symbol: O  # 139
  coordinates: [  0.118369140000000,  0.750000000000000,  0.114863030000000 ]
  mass: 15.999400
- symbol: O  # 140
  coordinates: [  0.618369140000000,  0.750000000000000,  0.114863030000000 ]
  mass: 15.999400
- symbol: O  # 141
  coordinates: [  0.118369140000000,  0.250000000000000,  0.614863030000000 ]
  mass: 15.999400
- symbol: O  # 142
  coordinates: [  0.618369140000000,  0.250000000000000,  0.614863030000000 ]
  mass: 15.999400
- symbol: O  # 143
  coordinates: [  0.118369140000000,  0.750000000000000,  0.614863030000000 ]
  mass: 15.999400
- symbol: O  # 144
  coordinates: [  0.618369140000000,  0.750000000000000,  0.614863030000000 ]
  mass: 15.999400
- symbol: V  # 145
  coordinates: [  0.486337590000000,  0.427666665000000,  0.252145850000000 ]
  mass: 50.941500
- symbol: V  # 146
  coordinates: [  0.986337590000000,  0.427666665000000,  0.252145850000000 ]
  mass: 50.941500
- symbol: V  # 147
  coordinates: [  0.486337590000000,  0.927666665000000,  0.252145850000000 ]
  mass: 50.941500
- symbol: V  # 148
  coordinates: [  0.986337590000000,  0.927666665000000,  0.252145850000000 ]
  mass: 50.941500
- symbol: V  # 149
  coordinates: [  0.486337590000000,  0.427666665000000,  0.752145850000000 ]
  mass: 50.941500
- symbol: V  # 150
  coordinates: [  0.986337590000000,  0.427666665000000,  0.752145850000000 ]
  mass: 50.941500
- symbol: V  # 151
  coordinates: [  0.486337590000000,  0.927666665000000,  0.752145850000000 ]
  mass: 50.941500
- symbol: V  # 152
  coordinates: [  0.986337590000000,  0.927666665000000,  0.752145850000000 ]
  mass: 50.941500
- symbol: V  # 153
  coordinates: [  0.236337590000000,  0.177666665000000,  0.252145850000000 ]
  mass: 50.941500
- symbol: V  # 154
  coordinates: [  0.736337590000000,  0.177666665000000,  0.252145850000000 ]
  mass: 50.941500
- symbol: V  # 155
  coordinates: [  0.236337590000000,  0.677666665000000,  0.252145850000000 ]
  mass: 50.941500
- symbol: V  # 156
  coordinates: [  0.736337590000000,  0.677666665000000,  0.252145850000000 ]
  mass: 50.941500
- symbol: V  # 157
  coordinates: [  0.236337590000000,  0.177666665000000,  0.752145850000000 ]
  mass: 50.941500
- symbol: V  # 158
  coordinates: [  0.736337590000000,  0.177666665000000,  0.752145850000000 ]
  mass: 50.941500
- symbol: V  # 159
  coordinates: [  0.236337590000000,  0.677666665000000,  0.752145850000000 ]
  mass: 50.941500
- symbol: V  # 160
  coordinates: [  0.736337590000000,  0.677666665000000,  0.752145850000000 ]
  mass: 50.941500
- symbol: V  # 161
  coordinates: [  0.486337590000000,  0.072333335000000,  0.252145850000000 ]
  mass: 50.941500
- symbol: V  # 162
  coordinates: [  0.986337590000000,  0.072333335000000,  0.252145850000000 ]
  mass: 50.941500
- symbol: V  # 163
  coordinates: [  0.486337590000000,  0.572333335000000,  0.252145850000000 ]
  mass: 50.941500
- symbol: V  # 164
  coordinates: [  0.986337590000000,  0.572333335000000,  0.252145850000000 ]
  mass: 50.941500
- symbol: V  # 165
  coordinates: [  0.486337590000000,  0.072333335000000,  0.752145850000000 ]
  mass: 50.941500
- symbol: V  # 166
  coordinates: [  0.986337590000000,  0.072333335000000,  0.752145850000000 ]
  mass: 50.941500
- symbol: V  # 167
  coordinates: [  0.486337590000000,  0.572333335000000,  0.752145850000000 ]
  mass: 50.941500
- symbol: V  # 168
  coordinates: [  0.986337590000000,  0.572333335000000,  0.752145850000000 ]
  mass: 50.941500
- symbol: V  # 169
  coordinates: [  0.236337590000000,  0.322333335000000,  0.252145850000000 ]
  mass: 50.941500
- symbol: V  # 170
  coordinates: [  0.736337590000000,  0.322333335000000,  0.252145850000000 ]
  mass: 50.941500
- symbol: V  # 171
  coordinates: [  0.236337590000000,  0.822333335000000,  0.252145850000000 ]
  mass: 50.941500
- symbol: V  # 172
  coordinates: [  0.736337590000000,  0.822333335000000,  0.252145850000000 ]
  mass: 50.941500
- symbol: V  # 173
  coordinates: [  0.236337590000000,  0.322333335000000,  0.752145850000000 ]
  mass: 50.941500
- symbol: V  # 174
  coordinates: [  0.736337590000000,  0.322333335000000,  0.752145850000000 ]
  mass: 50.941500
- symbol: V  # 175
  coordinates: [  0.236337590000000,  0.822333335000000,  0.752145850000000 ]
  mass: 50.941500
- symbol: V  # 176
  coordinates: [  0.736337590000000,  0.822333335000000,  0.752145850000000 ]
  mass: 50.941500
- symbol: V  # 177
  coordinates: [  0.270608805000000,  0.000000000000000,  0.253030460000000 ]
  mass: 50.941500
- symbol: V  # 178
  coordinates: [  0.770608805000000,  0.000000000000000,  0.253030460000000 ]
  mass: 50.941500
- symbol: V  # 179
  coordinates: [  0.270608805000000,  0.500000000000000,  0.253030460000000 ]
  mass: 50.941500
- symbol: V  # 180
  coordinates: [  0.770608805000000,  0.500000000000000,  0.253030460000000 ]
  mass: 50.941500
- symbol: V  # 181
  coordinates: [  0.270608805000000,  0.000000000000000,  0.753030460000000 ]
  mass: 50.941500
- symbol: V  # 182
  coordinates: [  0.770608805000000,  0.000000000000000,  0.753030460000000 ]
  mass: 50.941500
- symbol: V  # 183
  coordinates: [  0.270608805000000,  0.500000000000000,  0.753030460000000 ]
  mass: 50.941500
- symbol: V  # 184
  coordinates: [  0.770608805000000,  0.500000000000000,  0.753030460000000 ]
  mass: 50.941500
- symbol: V  # 185
  coordinates: [  0.020608805000000,  0.250000000000000,  0.253030460000000 ]
  mass: 50.941500
- symbol: V  # 186
  coordinates: [  0.520608805000000,  0.250000000000000,  0.253030460000000 ]
  mass: 50.941500
- symbol: V  # 187
  coordinates: [  0.020608805000000,  0.750000000000000,  0.253030460000000 ]
  mass: 50.941500
- symbol: V  # 188
  coordinates: [  0.520608805000000,  0.750000000000000,  0.253030460000000 ]
  mass: 50.941500
- symbol: V  # 189
  coordinates: [  0.020608805000000,  0.250000000000000,  0.753030460000000 ]
  mass: 50.941500
- symbol: V  # 190
  coordinates: [  0.520608805000000,  0.250000000000000,  0.753030460000000 ]
  mass: 50.941500
- symbol: V  # 191
  coordinates: [  0.020608805000000,  0.750000000000000,  0.753030460000000 ]
  mass: 50.941500
- symbol: V  # 192
  coordinates: [  0.520608805000000,  0.750000000000000,  0.753030460000000 ]
  mass: 50.941500